       N       E                     dE             d eps       ncg     rms          rms(c)
DAV:   1     0.126988089662E+05    0.12699E+05   -0.82945E+05  4440   0.144E+03
DAV:   2    -0.106642298473E+04   -0.13765E+05   -0.13178E+05  5256   0.330E+02
DAV:   3    -0.247095270618E+04   -0.14045E+04   -0.13916E+04  5336   0.111E+02
DAV:   4    -0.251635433239E+04   -0.45402E+02   -0.45179E+02  6592   0.296E+01
DAV:   5    -0.251723492448E+04   -0.88059E+00   -0.87913E+00  5544   0.331E+00    0.171E+02
RMM:   6    -0.147580340637E+04    0.10414E+04   -0.19585E+03  4395   0.389E+01    0.728E+01
RMM:   7    -0.164957067106E+04   -0.17377E+03   -0.28372E+02  5015   0.144E+01    0.517E+01
RMM:   8    -0.170040064774E+04   -0.50830E+02   -0.75172E+01  5217   0.785E+00    0.430E+01
RMM:   9    -0.176722237591E+04   -0.66822E+02   -0.64097E+01  4970   0.732E+00    0.355E+01
RMM:  10    -0.190005600377E+04   -0.13283E+03   -0.65029E+01  4929   0.788E+00    0.224E+01
RMM:  11    -0.199902744492E+04   -0.98971E+02   -0.38789E+01  4867   0.545E+00    0.157E+01
RMM:  12    -0.211508801813E+04   -0.11606E+03   -0.62625E+01  4466   0.599E+00    0.118E+01
RMM:  13    -0.223628321026E+04   -0.12120E+03   -0.10134E+02  4388   0.714E+00    0.742E+00
RMM:  14    -0.229539061447E+04   -0.59107E+02   -0.61439E+01  4657   0.554E+00    0.437E+00
RMM:  15    -0.230269839302E+04   -0.73078E+01   -0.10298E+01  4805   0.303E+00    0.581E+00
RMM:  16    -0.230296465667E+04   -0.26626E+00   -0.21762E+00  5752   0.771E-01    0.578E+00
RMM:  17    -0.230288672701E+04    0.77930E-01   -0.60450E-02  6152   0.168E-01    0.581E+00
RMM:  18    -0.230322098768E+04   -0.33426E+00   -0.12646E-01  4443   0.203E-01    0.544E+00
RMM:  19    -0.230474973318E+04   -0.15287E+01   -0.84972E-01  4379   0.611E-01    0.307E+00
RMM:  20    -0.230581097108E+04   -0.10612E+01   -0.37546E-01  4722   0.451E-01    0.265E+00
RMM:  21    -0.230698247342E+04   -0.11715E+01   -0.43801E-01  4446   0.376E-01    0.243E+00
RMM:  22    -0.230764201395E+04   -0.65954E+00   -0.34182E-01  4663   0.355E-01    0.201E+00
RMM:  23    -0.230768969688E+04   -0.47683E-01   -0.65030E-02  4874   0.206E-01    0.183E+00
RMM:  24    -0.230777674190E+04   -0.87045E-01   -0.57607E-02  4581   0.121E-01    0.163E+00
RMM:  25    -0.230792314799E+04   -0.14641E+00   -0.70715E-02  4388   0.172E-01    0.104E+00
RMM:  26    -0.230795928817E+04   -0.36140E-01   -0.25422E-02  5056   0.115E-01    0.798E-01
RMM:  27    -0.230802683375E+04   -0.67546E-01   -0.32154E-02  4425   0.106E-01    0.735E-01
RMM:  28    -0.230804576063E+04   -0.18927E-01   -0.11734E-02  4530   0.799E-02    0.615E-01
RMM:  29    -0.230804911268E+04   -0.33520E-02   -0.61580E-03  5293   0.484E-02    0.424E-01
RMM:  30    -0.230805716740E+04   -0.80547E-02   -0.33706E-03  4512   0.379E-02    0.270E-01
RMM:  31    -0.230807377126E+04   -0.16604E-01   -0.42710E-03  4411   0.430E-02    0.130E-01
RMM:  32    -0.230808757679E+04   -0.13806E-01   -0.36724E-03  4420   0.419E-02    0.811E-02
RMM:  33    -0.230809459515E+04   -0.70184E-02   -0.24297E-03  4602   0.342E-02    0.697E-02
RMM:  34    -0.230809708026E+04   -0.24851E-02   -0.92767E-04  4330   0.229E-02    0.463E-02
RMM:  35    -0.230809815496E+04   -0.10747E-02   -0.39520E-04  4127   0.126E-02    0.276E-02
RMM:  36    -0.230809852518E+04   -0.37022E-03   -0.13631E-04  3777   0.986E-03    0.174E-02
RMM:  37    -0.230809868946E+04   -0.16428E-03   -0.53950E-05  3383   0.613E-03    0.121E-02
RMM:  38    -0.230809874174E+04   -0.52273E-04   -0.16572E-05  2899   0.470E-03    0.559E-03
RMM:  39    -0.230809876334E+04   -0.21601E-04   -0.63131E-06  2812   0.284E-03    0.335E-03
RMM:  40    -0.230809878625E+04   -0.22909E-04   -0.52512E-06  2799   0.249E-03    0.274E-03
RMM:  41    -0.230809879498E+04   -0.87333E-05   -0.26952E-06  2549   0.212E-03
   1 F= -.23285317E+04 E0= -.23285257E+04  d E =-.232853E+04  mag=     2.0000
       N       E                     dE             d eps       ncg     rms          rms(c)
DAV:   1    -0.230802962052E+04    0.69166E-01   -0.13973E+01  4808   0.308E+00    0.147E+00
RMM:   2    -0.230846459503E+04   -0.43497E+00   -0.29826E+00  6208   0.804E-01    0.454E+00
RMM:   3    -0.230827040515E+04    0.19419E+00   -0.24449E-01  5748   0.237E-01    0.616E-01
RMM:   4    -0.230826619716E+04    0.42080E-02   -0.38747E-02  4962   0.617E-02    0.331E-01
RMM:   5    -0.230826463250E+04    0.15647E-02   -0.41160E-03  5072   0.387E-02    0.244E-01
RMM:   6    -0.230826411322E+04    0.51928E-03   -0.20261E-03  5058   0.265E-02    0.124E-01
RMM:   7    -0.230826398235E+04    0.13087E-03   -0.47203E-04  4201   0.136E-02    0.579E-02
RMM:   8    -0.230826405610E+04   -0.73744E-04   -0.12548E-04  3541   0.759E-03    0.104E-01
RMM:   9    -0.230826406952E+04   -0.13420E-04   -0.50062E-05  2884   0.567E-03    0.903E-02
RMM:  10    -0.230826406507E+04    0.44516E-05   -0.17407E-05  2834   0.298E-03
   2 F= -.23286961E+04 E0= -.23286904E+04  d E =-.164406E+00  mag=     2.0000
       N       E                     dE             d eps       ncg     rms          rms(c)
DAV:   1    -0.230804881948E+04    0.21525E+00   -0.16389E+01  4576   0.337E+00    0.158E+00
RMM:   2    -0.230854693267E+04   -0.49811E+00   -0.35281E+00  6263   0.921E-01    0.471E+00
RMM:   3    -0.230833288262E+04    0.21405E+00   -0.28796E-01  5685   0.265E-01    0.667E-01
RMM:   4    -0.230832801174E+04    0.48709E-02   -0.45113E-02  4905   0.679E-02    0.356E-01
RMM:   5    -0.230832616276E+04    0.18490E-02   -0.49933E-03  5048   0.438E-02    0.263E-01
RMM:   6    -0.230832560243E+04    0.56033E-03   -0.22245E-03  5062   0.285E-02    0.159E-01
RMM:   7    -0.230832546521E+04    0.13722E-03   -0.45659E-04  4135   0.130E-02    0.116E-01
RMM:   8    -0.230832540691E+04    0.58302E-04   -0.34933E-04  3852   0.101E-02    0.881E-02
RMM:   9    -0.230832550601E+04   -0.99095E-04   -0.18660E-04  3298   0.798E-03    0.102E-01
RMM:  10    -0.230832550089E+04    0.51159E-05   -0.56884E-05  2874   0.551E-03
   3 F= -.23287567E+04 E0= -.23287510E+04  d E =-.224977E+00  mag=     2.0000
       N       E                     dE             d eps       ncg     rms          rms(c)
DAV:   1    -0.230830870462E+04    0.16801E-01   -0.84655E+00  4512   0.258E+00    0.107E+00
RMM:   2    -0.230849717990E+04   -0.18848E+00   -0.13944E+00  6233   0.627E-01    0.279E+00
RMM:   3    -0.230842363251E+04    0.73547E-01   -0.10579E-01  5865   0.169E-01    0.517E-01
RMM:   4    -0.230842059869E+04    0.30338E-02   -0.15400E-02  4770   0.478E-02    0.255E-01
RMM:   5    -0.230841994341E+04    0.65528E-03   -0.25558E-03  5314   0.345E-02    0.160E-01
RMM:   6    -0.230841992464E+04    0.18775E-04   -0.61361E-04  5101   0.170E-02    0.130E-01
RMM:   7    -0.230841992502E+04   -0.37953E-06   -0.83057E-05  3072   0.648E-03
   4 F= -.23288501E+04 E0= -.23288462E+04  d E =-.934514E-01  mag=     2.0000
       N       E                     dE             d eps       ncg     rms          rms(c)
DAV:   1    -0.230831764610E+04    0.10228E+00   -0.10488E+01  4480   0.286E+00    0.115E+00
RMM:   2    -0.230854279425E+04   -0.22515E+00   -0.17385E+00  6258   0.703E-01    0.290E+00
RMM:   3    -0.230846284516E+04    0.79949E-01   -0.12783E-01  5881   0.188E-01    0.564E-01
RMM:   4    -0.230845931445E+04    0.35307E-02   -0.18742E-02  4849   0.537E-02    0.283E-01
RMM:   5    -0.230845819174E+04    0.11227E-02   -0.32975E-03  5383   0.386E-02    0.160E-01
RMM:   6    -0.230845806443E+04    0.12731E-03   -0.12192E-03  5168   0.238E-02    0.702E-02
RMM:   7    -0.230845806931E+04   -0.48827E-05   -0.16784E-04  3547   0.987E-03    0.671E-02
RMM:   8    -0.230845806945E+04   -0.13519E-06   -0.19421E-05  2895   0.467E-03
   5 F= -.23288873E+04 E0= -.23288852E+04  d E =-.130571E+00  mag=     2.0000
       N       E                     dE             d eps       ncg     rms          rms(c)
DAV:   1    -0.230847944472E+04   -0.21375E-01   -0.37966E+00  4544   0.160E+00    0.550E-01
RMM:   2    -0.230852637238E+04   -0.46928E-01   -0.45389E-01  6258   0.377E-01    0.838E-01
RMM:   3    -0.230852305218E+04    0.33202E-02   -0.30231E-02  5972   0.904E-02    0.505E-01
RMM:   4    -0.230852078538E+04    0.22668E-02   -0.39933E-03  5212   0.289E-02    0.151E-01
RMM:   5    -0.230852051967E+04    0.26571E-03   -0.86529E-04  4942   0.210E-02    0.825E-02
RMM:   6    -0.230852053412E+04   -0.14452E-04   -0.17969E-04  3842   0.114E-02    0.653E-02
RMM:   7    -0.230852053216E+04    0.19665E-05   -0.29693E-05  2900   0.473E-03
   6 F= -.23289499E+04 E0= -.23289483E+04  d E =-.626060E-01  mag=     2.0000
       N       E                     dE             d eps       ncg     rms          rms(c)
DAV:   1    -0.230825550709E+04    0.26503E+00   -0.34136E+01  4432   0.473E+00    0.168E+00
RMM:   2    -0.230869405298E+04   -0.43855E+00   -0.41513E+00  6281   0.112E+00    0.269E+00
RMM:   3    -0.230864660008E+04    0.47453E-01   -0.31317E-01  6071   0.282E-01    0.136E+00
RMM:   4    -0.230862949851E+04    0.17102E-01   -0.34894E-02  5198   0.848E-02    0.432E-01
RMM:   5    -0.230862759507E+04    0.19034E-02   -0.70800E-03  5164   0.588E-02    0.302E-01
RMM:   6    -0.230862716311E+04    0.43196E-03   -0.19609E-03  5136   0.350E-02    0.134E-01
RMM:   7    -0.230862703978E+04    0.12333E-03   -0.50995E-04  4107   0.123E-02    0.707E-02
RMM:   8    -0.230862708536E+04   -0.45584E-04   -0.10611E-04  3295   0.832E-03    0.714E-02
RMM:   9    -0.230862709447E+04   -0.91040E-05   -0.59271E-05  2865   0.541E-03
   7 F= -.23290569E+04 E0= -.23290561E+04  d E =-.169639E+00  mag=     2.0000
       N       E                     dE             d eps       ncg     rms          rms(c)
DAV:   1    -0.230858862718E+04    0.38458E-01   -0.43904E+00  4544   0.168E+00    0.602E-01
RMM:   2    -0.230864351640E+04   -0.54889E-01   -0.51102E-01  6263   0.388E-01    0.103E+00
RMM:   3    -0.230863667211E+04    0.68443E-02   -0.34998E-02  6007   0.940E-02    0.488E-01
RMM:   4    -0.230863452807E+04    0.21440E-02   -0.43018E-03  5018   0.296E-02    0.151E-01
RMM:   5    -0.230863428685E+04    0.24122E-03   -0.85495E-04  4867   0.213E-02    0.966E-02
RMM:   6    -0.230863424795E+04    0.38904E-04   -0.20751E-04  3997   0.123E-02    0.441E-02
RMM:   7    -0.230863423263E+04    0.15318E-04   -0.60899E-05  2973   0.566E-03    0.222E-02
RMM:   8    -0.230863423891E+04   -0.62770E-05   -0.13133E-05  2847   0.386E-03
   8 F= -.23290642E+04 E0= -.23290636E+04  d E =-.176953E+00  mag=     2.0000
       N       E                     dE             d eps       ncg     rms          rms(c)
DAV:   1    -0.230864306324E+04   -0.88306E-02   -0.52407E+00  4480   0.196E+00    0.733E-01
RMM:   2    -0.230870847356E+04   -0.65410E-01   -0.51052E-01  6137   0.422E-01    0.159E+00
RMM:   3    -0.230868655527E+04    0.21918E-01   -0.40775E-02  5895   0.113E-01    0.462E-01
RMM:   4    -0.230868421962E+04    0.23357E-02   -0.53178E-03  4882   0.323E-02    0.169E-01
RMM:   5    -0.230868384668E+04    0.37293E-03   -0.99785E-04  5352   0.233E-02    0.104E-01
RMM:   6    -0.230868375669E+04    0.89998E-04   -0.49752E-04  4849   0.157E-02    0.642E-02
RMM:   7    -0.230868372801E+04    0.28674E-04   -0.78019E-05  3033   0.791E-03    0.318E-02
RMM:   8    -0.230868373285E+04   -0.48360E-05   -0.27157E-05  2872   0.381E-03
   9 F= -.23291138E+04 E0= -.23291133E+04  d E =-.495821E-01  mag=     2.0000
       N       E                     dE             d eps       ncg     rms          rms(c)
DAV:   1    -0.230861111778E+04    0.72610E-01   -0.12707E+01  4440   0.306E+00    0.113E+00
RMM:   2    -0.230876764899E+04   -0.15653E+00   -0.12489E+00  6135   0.664E-01    0.237E+00
RMM:   3    -0.230871801813E+04    0.49631E-01   -0.96667E-02  5914   0.179E-01    0.725E-01
RMM:   4    -0.230871226221E+04    0.57559E-02   -0.12597E-02  4963   0.505E-02    0.261E-01
RMM:   5    -0.230871134249E+04    0.91972E-03   -0.24433E-03  5436   0.367E-02    0.164E-01
RMM:   6    -0.230871111054E+04    0.23195E-03   -0.11561E-03  5155   0.240E-02    0.981E-02
RMM:   7    -0.230871103504E+04    0.75496E-04   -0.20142E-04  3539   0.113E-02    0.423E-02
RMM:   8    -0.230871104935E+04   -0.14306E-04   -0.51746E-05  3029   0.527E-03    0.449E-02
RMM:   9    -0.230871105275E+04   -0.34023E-05   -0.31607E-05  2855   0.437E-03
  10 F= -.23291412E+04 E0= -.23291408E+04  d E =-.770151E-01  mag=     2.0000
       N       E                     dE             d eps       ncg     rms          rms(c)
DAV:   1    -0.230872049860E+04   -0.94493E-02   -0.38278E+00  4480   0.169E+00    0.521E-01
RMM:   2    -0.230876351886E+04   -0.43020E-01   -0.37047E-01  6146   0.353E-01    0.108E+00
RMM:   3    -0.230875406085E+04    0.94580E-02   -0.23038E-02  5836   0.915E-02    0.335E-01
RMM:   4    -0.230875283183E+04    0.12290E-02   -0.30565E-03  4877   0.283E-02    0.177E-01
RMM:   5    -0.230875237175E+04    0.46009E-03   -0.13689E-03  5169   0.269E-02    0.733E-02
RMM:   6    -0.230875233736E+04    0.34389E-04   -0.29742E-04  4672   0.155E-02    0.369E-02
RMM:   7    -0.230875232474E+04    0.12616E-04   -0.50957E-05  3054   0.536E-03    0.183E-02
RMM:   8    -0.230875232708E+04   -0.23385E-05   -0.14921E-05  2860   0.408E-03
  11 F= -.23291824E+04 E0= -.23291821E+04  d E =-.411789E-01  mag=     2.0000
       N       E                     dE             d eps       ncg     rms          rms(c)
DAV:   1    -0.230868944631E+04    0.62878E-01   -0.10465E+01  4400   0.280E+00    0.854E-01
RMM:   2    -0.230880530199E+04   -0.11586E+00   -0.10099E+00  6165   0.578E-01    0.175E+00
RMM:   3    -0.230878162209E+04    0.23680E-01   -0.65484E-02  5906   0.151E-01    0.590E-01
RMM:   4    -0.230877793792E+04    0.36842E-02   -0.94959E-03  5023   0.472E-02    0.294E-01
RMM:   5    -0.230877671746E+04    0.12205E-02   -0.35163E-03  5201   0.423E-02    0.144E-01
RMM:   6    -0.230877656134E+04    0.15611E-03   -0.87858E-04  5178   0.259E-02    0.724E-02
RMM:   7    -0.230877650929E+04    0.52057E-04   -0.15926E-04  3544   0.836E-03    0.339E-02
RMM:   8    -0.230877651497E+04   -0.56846E-05   -0.40510E-05  3001   0.666E-03
  12 F= -.23292064E+04 E0= -.23292061E+04  d E =-.651707E-01  mag=     2.0000
       N       E                     dE             d eps       ncg     rms          rms(c)
DAV:   1    -0.230877457514E+04    0.19342E-02   -0.50563E+00  4416   0.199E+00    0.638E-01
RMM:   2    -0.230882597239E+04   -0.51397E-01   -0.51502E-01  5995   0.378E-01    0.844E-01
RMM:   3    -0.230882806311E+04   -0.20907E-02   -0.58729E-02  5597   0.135E-01    0.705E-01
RMM:   4    -0.230882323101E+04    0.48321E-02   -0.60610E-03  5755   0.353E-02    0.197E-01
RMM:   5    -0.230882267793E+04    0.55308E-03   -0.19549E-03  5043   0.254E-02    0.968E-02
RMM:   6    -0.230882261754E+04    0.60391E-04   -0.52584E-04  4733   0.150E-02    0.569E-02
RMM:   7    -0.230882258882E+04    0.28718E-04   -0.79630E-05  3249   0.723E-03    0.293E-02
RMM:   8    -0.230882259100E+04   -0.21820E-05   -0.31256E-05  2871   0.523E-03
  13 F= -.23292535E+04 E0= -.23292532E+04  d E =-.470708E-01  mag=     2.0000
       N       E                     dE             d eps       ncg     rms          rms(c)
DAV:   1    -0.230853602349E+04    0.28657E+00   -0.33535E+01  4392   0.515E+00    0.165E+00
RMM:   2    -0.230887323256E+04   -0.33721E+00   -0.35021E+00  6055   0.992E-01    0.190E+00
RMM:   3    -0.230891405502E+04   -0.40822E-01   -0.43415E-01  5700   0.349E-01    0.215E+00
RMM:   4    -0.230886960277E+04    0.44452E-01   -0.40774E-02  6059   0.941E-02    0.528E-01
RMM:   5    -0.230886597128E+04    0.36315E-02   -0.15751E-02  5352   0.651E-02    0.300E-01
RMM:   6    -0.230886521672E+04    0.75455E-03   -0.60569E-03  5146   0.413E-02    0.180E-01
RMM:   7    -0.230886487987E+04    0.33685E-03   -0.81179E-04  4918   0.231E-02    0.816E-02
RMM:   8    -0.230886488348E+04   -0.36152E-05   -0.36298E-04  4097   0.113E-02    0.655E-02
RMM:   9    -0.230886491628E+04   -0.32800E-04   -0.63561E-05  2955   0.737E-03    0.598E-02
RMM:  10    -0.230886491090E+04    0.53807E-05   -0.33784E-05  2861   0.375E-03
  14 F= -.23292983E+04 E0= -.23292979E+04  d E =-.918783E-01  mag=     2.0000
       N       E                     dE             d eps       ncg     rms          rms(c)
DAV:   1    -0.230886834784E+04   -0.34316E-02   -0.29954E+00  4544   0.163E+00    0.483E-01
RMM:   2    -0.230889547256E+04   -0.27125E-01   -0.29207E-01  5976   0.302E-01    0.302E-01
RMM:   3    -0.230889846970E+04   -0.29971E-02   -0.26912E-02  5552   0.983E-02    0.506E-01
RMM:   4    -0.230889665066E+04    0.18190E-02   -0.34875E-03  5487   0.262E-02    0.165E-01
RMM:   5    -0.230889635172E+04    0.29895E-03   -0.97076E-04  4818   0.187E-02    0.946E-02
RMM:   6    -0.230889630969E+04    0.42030E-04   -0.32524E-04  4420   0.138E-02    0.280E-02
RMM:   7    -0.230889630993E+04   -0.24118E-06   -0.49287E-05  3167   0.653E-03
  15 F= -.23293309E+04 E0= -.23293305E+04  d E =-.326166E-01  mag=     2.0000
       N       E                     dE             d eps       ncg     rms          rms(c)
DAV:   1    -0.230869286524E+04    0.20344E+00   -0.25601E+01  4400   0.478E+00    0.143E+00
RMM:   2    -0.230893276194E+04   -0.23990E+00   -0.25459E+00  6000   0.898E-01    0.111E+00
RMM:   3    -0.230896194600E+04   -0.29184E-01   -0.27533E-01  5641   0.305E-01    0.173E+00
RMM:   4    -0.230893867020E+04    0.23276E-01   -0.32163E-02  5999   0.840E-02    0.495E-01
RMM:   5    -0.230893615382E+04    0.25164E-02   -0.92867E-03  5457   0.548E-02    0.335E-01
RMM:   6    -0.230893528390E+04    0.86993E-03   -0.35298E-03  5232   0.361E-02    0.110E-01
RMM:   7    -0.230893519990E+04    0.83996E-04   -0.59069E-04  4903   0.202E-02    0.705E-02
RMM:   8    -0.230893514245E+04    0.57446E-04   -0.18122E-04  3690   0.943E-03    0.394E-02
RMM:   9    -0.230893514739E+04   -0.49397E-05   -0.54047E-05  3036   0.640E-03
  16 F= -.23293731E+04 E0= -.23293725E+04  d E =-.748395E-01  mag=     2.0000
       N       E                     dE             d eps       ncg     rms          rms(c)
DAV:   1    -0.230895438446E+04   -0.19242E-01   -0.22797E+00  4576   0.151E+00    0.500E-01
RMM:   2    -0.230897984825E+04   -0.25464E-01   -0.24031E-01  5897   0.297E-01    0.699E-01
RMM:   3    -0.230897876919E+04    0.10791E-02   -0.22840E-02  5506   0.975E-02    0.500E-01
RMM:   4    -0.230897662398E+04    0.21452E-02   -0.27592E-03  5050   0.300E-02    0.132E-01
RMM:   5    -0.230897647082E+04    0.15316E-03   -0.89350E-04  5223   0.219E-02    0.696E-02
RMM:   6    -0.230897646082E+04    0.99987E-05   -0.15537E-04  4375   0.111E-02    0.414E-02
RMM:   7    -0.230897645355E+04    0.72710E-05   -0.27222E-05  2887   0.491E-03
  17 F= -.23294157E+04 E0= -.23294153E+04  d E =-.426096E-01  mag=     2.0000
       N       E                     dE             d eps       ncg     rms          rms(c)
DAV:   1    -0.230890526398E+04    0.71197E-01   -0.11084E+01  4432   0.334E+00    0.110E+00
RMM:   2    -0.230902602923E+04   -0.12077E+00   -0.11615E+00  5874   0.653E-01    0.145E+00
RMM:   3    -0.230902491485E+04    0.11144E-02   -0.12174E-01  5521   0.221E-01    0.113E+00
RMM:   4    -0.230901371726E+04    0.11198E-01   -0.13449E-02  5210   0.665E-02    0.296E-01
RMM:   5    -0.230901282874E+04    0.88853E-03   -0.43922E-03  5244   0.484E-02    0.146E-01
RMM:   6    -0.230901277428E+04    0.54461E-04   -0.76971E-04  5170   0.244E-02    0.734E-02
RMM:   7    -0.230901274702E+04    0.27251E-04   -0.11798E-04  3700   0.898E-03    0.443E-02
RMM:   8    -0.230901273212E+04    0.14906E-04   -0.53887E-05  2981   0.648E-03    0.220E-02
RMM:   9    -0.230901274281E+04   -0.10687E-04   -0.19321E-05  2870   0.438E-03    0.235E-02
RMM:  10    -0.230901274380E+04   -0.99273E-06   -0.82977E-06  2837   0.326E-03
  18 F= -.23294548E+04 E0= -.23294546E+04  d E =-.817274E-01  mag=     2.0000
       N       E                     dE             d eps       ncg     rms          rms(c)
DAV:   1    -0.230902090314E+04   -0.81603E-02   -0.31948E+00  4528   0.158E+00    0.517E-01
RMM:   2    -0.230904740574E+04   -0.26503E-01   -0.28673E-01  6113   0.305E-01    0.389E-01
RMM:   3    -0.230904958561E+04   -0.21799E-02   -0.28379E-02  5716   0.961E-02    0.584E-01
RMM:   4    -0.230904686367E+04    0.27219E-02   -0.35977E-03  5707   0.275E-02    0.192E-01
RMM:   5    -0.230904656617E+04    0.29750E-03   -0.89111E-04  4784   0.169E-02    0.870E-02
RMM:   6    -0.230904652622E+04    0.39947E-04   -0.40208E-04  4715   0.138E-02    0.288E-02
RMM:   7    -0.230904652332E+04    0.29043E-05   -0.32488E-05  2937   0.642E-03
  19 F= -.23294901E+04 E0= -.23294899E+04  d E =-.352595E-01  mag=     2.0000
       N       E                     dE             d eps       ncg     rms          rms(c)
DAV:   1    -0.230900559159E+04    0.40935E-01   -0.72058E+00  4464   0.237E+00    0.776E-01
RMM:   2    -0.230906614576E+04   -0.60554E-01   -0.65516E-01  6153   0.460E-01    0.575E-01
RMM:   3    -0.230907023978E+04   -0.40940E-02   -0.61805E-02  5820   0.138E-01    0.842E-01
RMM:   4    -0.230906452569E+04    0.57141E-02   -0.79291E-03  5973   0.407E-02    0.286E-01
RMM:   5    -0.230906384902E+04    0.67667E-03   -0.19486E-03  5123   0.247E-02    0.134E-01
RMM:   6    -0.230906373417E+04    0.11485E-03   -0.94598E-04  5132   0.199E-02    0.411E-02
RMM:   7    -0.230906372380E+04    0.10366E-04   -0.78030E-05  3355   0.905E-03    0.210E-02
RMM:   8    -0.230906372065E+04    0.31580E-05   -0.21132E-05  2861   0.402E-03
  20 F= -.23295095E+04 E0= -.23295094E+04  d E =-.546450E-01  mag=     2.0000
       N       E                     dE             d eps       ncg     rms          rms(c)
DAV:   1    -0.230907403926E+04   -0.10315E-01   -0.33077E+00  4448   0.162E+00    0.466E-01
RMM:   2    -0.230909225270E+04   -0.18213E-01   -0.19887E-01  5961   0.300E-01    0.283E-01
RMM:   3    -0.230909414788E+04   -0.18952E-02   -0.17835E-02  5609   0.927E-02    0.474E-01
RMM:   4    -0.230909245344E+04    0.16944E-02   -0.23559E-03  5803   0.265E-02    0.169E-01
RMM:   5    -0.230909221768E+04    0.23577E-03   -0.92001E-04  4630   0.219E-02    0.529E-02
RMM:   6    -0.230909221182E+04    0.58572E-05   -0.12189E-04  3932   0.124E-02    0.196E-02
RMM:   7    -0.230909221079E+04    0.10273E-05   -0.31104E-05  3003   0.461E-03
  21 F= -.23295389E+04 E0= -.23295389E+04  d E =-.294437E-01  mag=     2.0000
       N       E                     dE             d eps       ncg     rms          rms(c)
DAV:   1    -0.230907752807E+04    0.14684E-01   -0.45056E+00  4416   0.189E+00    0.543E-01
RMM:   2    -0.230910233487E+04   -0.24807E-01   -0.27123E-01  5956   0.350E-01    0.325E-01
RMM:   3    -0.230910471596E+04   -0.23811E-02   -0.24091E-02  5632   0.107E-01    0.532E-01
RMM:   4    -0.230910260864E+04    0.21073E-02   -0.31404E-03  5887   0.306E-02    0.198E-01
RMM:   5    -0.230910228347E+04    0.32517E-03   -0.12724E-03  4653   0.255E-02    0.611E-02
RMM:   6    -0.230910227315E+04    0.10318E-04   -0.16291E-04  4204   0.144E-02    0.225E-02
RMM:   7    -0.230910227250E+04    0.64398E-06   -0.41025E-05  3216   0.504E-03
  22 F= -.23295501E+04 E0= -.23295500E+04  d E =-.405796E-01  mag=     2.0000
       N       E                     dE             d eps       ncg     rms          rms(c)
DAV:   1    -0.230910921298E+04   -0.69398E-02   -0.24185E+00  4464   0.140E+00    0.436E-01
RMM:   2    -0.230912240661E+04   -0.13194E-01   -0.12150E-01  5815   0.257E-01    0.534E-01
RMM:   3    -0.230912140938E+04    0.99723E-03   -0.10433E-02  5548   0.828E-02    0.432E-01
RMM:   4    -0.230911947012E+04    0.19393E-02   -0.15702E-03  5169   0.270E-02    0.114E-01
RMM:   5    -0.230911930429E+04    0.16583E-03   -0.94244E-04  5168   0.216E-02    0.458E-02
RMM:   6    -0.230911927576E+04    0.28524E-04   -0.13402E-04  4469   0.109E-02    0.197E-02
RMM:   7    -0.230911926956E+04    0.62036E-05   -0.24155E-05  2958   0.444E-03
  23 F= -.23295673E+04 E0= -.23295673E+04  d E =-.172750E-01  mag=     2.0000
       N       E                     dE             d eps       ncg     rms          rms(c)
DAV:   1    -0.230911772042E+04    0.15553E-02   -0.11400E+00  4496   0.962E-01    0.299E-01
RMM:   2    -0.230912397648E+04   -0.62561E-02   -0.57284E-02  5790   0.177E-01    0.374E-01
RMM:   3    -0.230912341787E+04    0.55861E-03   -0.48731E-03  5414   0.583E-02    0.292E-01
RMM:   4    -0.230912252711E+04    0.89076E-03   -0.73377E-04  4910   0.187E-02    0.787E-02
RMM:   5    -0.230912244030E+04    0.86810E-04   -0.44302E-04  5007   0.153E-02    0.324E-02
RMM:   6    -0.230912242364E+04    0.16653E-04   -0.65820E-05  3608   0.814E-03    0.145E-02
RMM:   7    -0.230912241916E+04    0.44849E-05   -0.14899E-05  2866   0.405E-03
  24 F= -.23295707E+04 E0= -.23295707E+04  d E =-.206082E-01  mag=     2.0000
       N       E                     dE             d eps       ncg     rms          rms(c)
DAV:   1    -0.230911400246E+04    0.84212E-02   -0.29674E+00  4416   0.161E+00    0.506E-01
RMM:   2    -0.230914472051E+04   -0.30718E-01   -0.26888E-01  5983   0.317E-01    0.861E-01
RMM:   3    -0.230913954963E+04    0.51709E-02   -0.24012E-02  5425   0.102E-01    0.386E-01
RMM:   4    -0.230913788197E+04    0.16677E-02   -0.26889E-03  5054   0.280E-02    0.128E-01
RMM:   5    -0.230913766346E+04    0.21851E-03   -0.95612E-04  5085   0.214E-02    0.582E-02
RMM:   6    -0.230913765082E+04    0.12636E-04   -0.18685E-04  4590   0.123E-02    0.288E-02
RMM:   7    -0.230913764811E+04    0.27129E-05   -0.37323E-05  2961   0.521E-03
  25 F= -.23295860E+04 E0= -.23295859E+04  d E =-.152817E-01  mag=     2.0000
       N       E                     dE             d eps       ncg     rms          rms(c)
DAV:   1    -0.230913086269E+04    0.67881E-02   -0.11896E+00  4480   0.103E+00    0.321E-01
RMM:   2    -0.230914314310E+04   -0.12280E-01   -0.10784E-01  5972   0.202E-01    0.541E-01
RMM:   3    -0.230914110791E+04    0.20352E-02   -0.94499E-03  5346   0.648E-02    0.244E-01
RMM:   4    -0.230914044488E+04    0.66303E-03   -0.10733E-03  4820   0.178E-02    0.812E-02
RMM:   5    -0.230914035737E+04    0.87514E-04   -0.37650E-04  4585   0.139E-02    0.367E-02
RMM:   6    -0.230914035328E+04    0.40890E-05   -0.72168E-05  3626   0.862E-03
  26 F= -.23295887E+04 E0= -.23295887E+04  d E =-.180187E-01  mag=     2.0000
       N       E                     dE             d eps       ncg     rms          rms(c)
DAV:   1    -0.230913367952E+04    0.66779E-02   -0.33546E+00  4416   0.179E+00    0.465E-01
RMM:   2    -0.230915844282E+04   -0.24763E-01   -0.24827E-01  5991   0.329E-01    0.519E-01
RMM:   3    -0.230915913630E+04   -0.69348E-03   -0.20614E-02  5479   0.984E-02    0.485E-01
RMM:   4    -0.230915667489E+04    0.24614E-02   -0.26404E-03  5608   0.277E-02    0.141E-01
RMM:   5    -0.230915643501E+04    0.23988E-03   -0.78211E-04  4619   0.185E-02    0.655E-02
RMM:   6    -0.230915642165E+04    0.13364E-04   -0.33507E-04  4443   0.158E-02    0.335E-02
RMM:   7    -0.230915641191E+04    0.97399E-05   -0.42436E-05  2968   0.627E-03
  27 F= -.23296047E+04 E0= -.23296046E+04  d E =-.159706E-01  mag=     2.0000
       N       E                     dE             d eps       ncg     rms          rms(c)
DAV:   1    -0.230908066091E+04    0.75761E-01   -0.12377E+01  4400   0.344E+00    0.893E-01
RMM:   2    -0.230917157723E+04   -0.90916E-01   -0.91434E-01  6007   0.638E-01    0.987E-01
RMM:   3    -0.230917531485E+04   -0.37376E-02   -0.79819E-02  5540   0.192E-01    0.952E-01
RMM:   4    -0.230916584178E+04    0.94731E-02   -0.99673E-03  5780   0.534E-02    0.269E-01
RMM:   5    -0.230916490420E+04    0.93758E-03   -0.30731E-03  4727   0.359E-02    0.123E-01
RMM:   6    -0.230916486685E+04    0.37347E-04   -0.10779E-03  4689   0.293E-02    0.655E-02
RMM:   7    -0.230916483241E+04    0.34440E-04   -0.16639E-04  3767   0.103E-02    0.263E-02
RMM:   8    -0.230916483734E+04   -0.49233E-05   -0.27037E-05  2867   0.538E-03
  28 F= -.23296129E+04 E0= -.23296129E+04  d E =-.242391E-01  mag=     2.0000
       N       E                     dE             d eps       ncg     rms          rms(c)
DAV:   1    -0.230916728480E+04   -0.24524E-02   -0.49925E-01  4672   0.692E-01    0.172E-01
RMM:   2    -0.230917134822E+04   -0.40634E-02   -0.37073E-02  6116   0.126E-01    0.269E-01
RMM:   3    -0.230917097741E+04    0.37082E-03   -0.29293E-03  5154   0.377E-02    0.140E-01
RMM:   4    -0.230917078407E+04    0.19333E-03   -0.35692E-04  3777   0.998E-03    0.497E-02
RMM:   5    -0.230917076049E+04    0.23582E-04   -0.10194E-04  3638   0.829E-03    0.240E-02
RMM:   6    -0.230917076318E+04   -0.26882E-05   -0.17936E-05  2865   0.594E-03
  29 F= -.23296188E+04 E0= -.23296188E+04  d E =-.590746E-02  mag=     2.0000
       N       E                     dE             d eps       ncg     rms          rms(c)
DAV:   1    -0.230915494164E+04    0.15819E-01   -0.44932E+00  4408   0.208E+00    0.501E-01
RMM:   2    -0.230919034579E+04   -0.35404E-01   -0.32781E-01  6072   0.374E-01    0.762E-01
RMM:   3    -0.230918800489E+04    0.23409E-02   -0.27359E-02  5656   0.106E-01    0.428E-01
RMM:   4    -0.230918601651E+04    0.19884E-02   -0.30929E-03  5197   0.286E-02    0.150E-01
RMM:   5    -0.230918574133E+04    0.27518E-03   -0.10696E-03  4575   0.240E-02    0.674E-02
RMM:   6    -0.230918576357E+04   -0.22241E-04   -0.17027E-04  4066   0.161E-02    0.434E-02
RMM:   7    -0.230918574892E+04    0.14650E-04   -0.36853E-05  2964   0.451E-03    0.206E-02
RMM:   8    -0.230918575346E+04   -0.45377E-05   -0.91696E-06  2843   0.332E-03
  30 F= -.23296338E+04 E0= -.23296337E+04  d E =-.208463E-01  mag=     2.0000
       N       E                     dE             d eps       ncg     rms          rms(c)
DAV:   1    -0.230907779664E+04    0.10795E+00   -0.17943E+01  4400   0.415E+00    0.999E-01
RMM:   2    -0.230921774883E+04   -0.13995E+00   -0.13160E+00  6085   0.752E-01    0.146E+00
RMM:   3    -0.230921249229E+04    0.52565E-02   -0.11625E-01  5717   0.220E-01    0.923E-01
RMM:   4    -0.230920337648E+04    0.91158E-02   -0.12700E-02  5358   0.582E-02    0.294E-01
RMM:   5    -0.230920228240E+04    0.10941E-02   -0.43279E-03  4605   0.477E-02    0.143E-01
RMM:   6    -0.230920232335E+04   -0.40945E-04   -0.66131E-04  4602   0.306E-02    0.821E-02
RMM:   7    -0.230920227006E+04    0.53290E-04   -0.16167E-04  3864   0.857E-03    0.348E-02
RMM:   8    -0.230920229184E+04   -0.21785E-04   -0.29496E-05  2891   0.686E-03    0.287E-02
RMM:   9    -0.230920229485E+04   -0.30069E-05   -0.18265E-05  2851   0.334E-03
  31 F= -.23296502E+04 E0= -.23296502E+04  d E =-.373056E-01  mag=     2.0000
       N       E                     dE             d eps       ncg     rms          rms(c)
DAV:   1    -0.230918837748E+04    0.13914E-01   -0.21616E+00  4528   0.144E+00    0.352E-01
RMM:   2    -0.230920590008E+04   -0.17523E-01   -0.15937E-01  6081   0.260E-01    0.568E-01
RMM:   3    -0.230920432004E+04    0.15800E-02   -0.13441E-02  5612   0.745E-02    0.290E-01
RMM:   4    -0.230920341485E+04    0.90519E-03   -0.15014E-03  5019   0.198E-02    0.102E-01
RMM:   5    -0.230920328458E+04    0.13026E-03   -0.48073E-04  4436   0.165E-02    0.449E-02
RMM:   6    -0.230920329421E+04   -0.96233E-05   -0.80026E-05  3484   0.112E-02
  32 F= -.23296512E+04 E0= -.23296512E+04  d E =-.382841E-01  mag=     2.0000
       N       E                     dE             d eps       ncg     rms          rms(c)
DAV:   1    -0.230921049577E+04   -0.72112E-02   -0.11993E+00  4464   0.105E+00    0.316E-01
RMM:   2    -0.230921925552E+04   -0.87597E-02   -0.81966E-02  5946   0.197E-01    0.395E-01
RMM:   3    -0.230921895092E+04    0.30460E-03   -0.70274E-03  5542   0.604E-02    0.315E-01
RMM:   4    -0.230921790737E+04    0.10435E-02   -0.97409E-04  5010   0.194E-02    0.837E-02
RMM:   5    -0.230921782190E+04    0.85470E-04   -0.43475E-04  4836   0.161E-02    0.383E-02
RMM:   6    -0.230921781633E+04    0.55667E-05   -0.53741E-05  3255   0.857E-03
  33 F= -.23296658E+04 E0= -.23296658E+04  d E =-.146014E-01  mag=     2.0000
       N       E                     dE             d eps       ncg     rms          rms(c)
DAV:   1    -0.230919395451E+04    0.23867E-01   -0.60970E+00  4408   0.237E+00    0.708E-01
RMM:   2    -0.230923798465E+04   -0.44030E-01   -0.41650E-01  5914   0.443E-01    0.863E-01
RMM:   3    -0.230923722343E+04    0.76122E-03   -0.36374E-02  5608   0.138E-01    0.726E-01
RMM:   4    -0.230923166393E+04    0.55595E-02   -0.49390E-03  5232   0.440E-02    0.185E-01
RMM:   5    -0.230923121685E+04    0.44709E-03   -0.21914E-03  5038   0.360E-02    0.888E-02
RMM:   6    -0.230923116466E+04    0.52182E-04   -0.31096E-04  5124   0.188E-02    0.496E-02
RMM:   7    -0.230923113753E+04    0.27137E-04   -0.61531E-05  3259   0.571E-03    0.247E-02
RMM:   8    -0.230923113042E+04    0.71032E-05   -0.21445E-05  2870   0.500E-03
  34 F= -.23296793E+04 E0= -.23296793E+04  d E =-.281007E-01  mag=     2.0000
       N       E                     dE             d eps       ncg     rms          rms(c)
DAV:   1    -0.230923586928E+04   -0.47318E-02   -0.11339E+00  4464   0.895E-01    0.274E-01
RMM:   2    -0.230924224325E+04   -0.63740E-02   -0.64102E-02  6029   0.164E-01    0.278E-01
RMM:   3    -0.230924259980E+04   -0.35655E-03   -0.50972E-03  5606   0.505E-02    0.315E-01
RMM:   4    -0.230924163551E+04    0.96429E-03   -0.78025E-04  4944   0.162E-02    0.746E-02
RMM:   5    -0.230924157426E+04    0.61253E-04   -0.31914E-04  4240   0.123E-02    0.301E-02
RMM:   6    -0.230924157703E+04   -0.27709E-05   -0.46869E-05  2947   0.847E-03
  35 F= -.23296898E+04 E0= -.23296897E+04  d E =-.104398E-01  mag=     2.0000
       N       E                     dE             d eps       ncg     rms          rms(c)
DAV:   1    -0.230921405465E+04    0.27520E-01   -0.74502E+00  4400   0.229E+00    0.695E-01
RMM:   2    -0.230925583396E+04   -0.41779E-01   -0.42023E-01  5998   0.417E-01    0.703E-01
RMM:   3    -0.230925811558E+04   -0.22816E-02   -0.34941E-02  5703   0.125E-01    0.795E-01
RMM:   4    -0.230925183444E+04    0.62811E-02   -0.49174E-03  5586   0.407E-02    0.189E-01
RMM:   5    -0.230925137163E+04    0.46281E-03   -0.20468E-03  4826   0.299E-02    0.759E-02
RMM:   6    -0.230925137735E+04   -0.57157E-05   -0.33534E-04  4656   0.192E-02    0.390E-02
RMM:   7    -0.230925136778E+04    0.95712E-05   -0.62994E-05  3293   0.582E-03
  36 F= -.23296995E+04 E0= -.23296995E+04  d E =-.201949E-01  mag=     2.0000
       N       E                     dE             d eps       ncg     rms          rms(c)
DAV:   1    -0.230925464979E+04   -0.32724E-02   -0.12845E+00  4448   0.922E-01    0.256E-01
RMM:   2    -0.230926175011E+04   -0.71003E-02   -0.64143E-02  6043   0.163E-01    0.378E-01
RMM:   3    -0.230926086855E+04    0.88156E-03   -0.50729E-03  5558   0.480E-02    0.235E-01
RMM:   4    -0.230926035921E+04    0.50933E-03   -0.61323E-04  4534   0.140E-02    0.749E-02
RMM:   5    -0.230926031869E+04    0.40526E-04   -0.27417E-04  4174   0.114E-02    0.377E-02
RMM:   6    -0.230926031181E+04    0.68788E-05   -0.53130E-05  2977   0.769E-03
  37 F= -.23297084E+04 E0= -.23297084E+04  d E =-.888263E-02  mag=     2.0000
       N       E                     dE             d eps       ncg     rms          rms(c)
DAV:   1    -0.230922104394E+04    0.39275E-01   -0.11534E+01  4400   0.276E+00    0.750E-01
RMM:   2    -0.230928320185E+04   -0.62158E-01   -0.57412E-01  6013   0.488E-01    0.103E+00
RMM:   3    -0.230927721125E+04    0.59906E-02   -0.47157E-02  5736   0.142E-01    0.697E-01
RMM:   4    -0.230927260229E+04    0.46090E-02   -0.56376E-03  5455   0.417E-02    0.220E-01
RMM:   5    -0.230927216955E+04    0.43274E-03   -0.22684E-03  4943   0.310E-02    0.113E-01
RMM:   6    -0.230927209727E+04    0.72280E-04   -0.62356E-04  5116   0.202E-02    0.558E-02
RMM:   7    -0.230927207624E+04    0.21034E-04   -0.75543E-05  3161   0.697E-03    0.220E-02
RMM:   8    -0.230927207970E+04   -0.34607E-05   -0.14514E-05  2856   0.454E-03
  38 F= -.23297199E+04 E0= -.23297199E+04  d E =-.204191E-01  mag=     2.0000
       N       E                     dE             d eps       ncg     rms          rms(c)
DAV:   1    -0.230927245708E+04   -0.38085E-03   -0.25203E+00  4464   0.133E+00    0.400E-01
RMM:   2    -0.230928518853E+04   -0.12731E-01   -0.13312E-01  5916   0.240E-01    0.303E-01
RMM:   3    -0.230928667377E+04   -0.14852E-02   -0.11734E-02  5483   0.796E-02    0.464E-01
RMM:   4    -0.230928463199E+04    0.20418E-02   -0.16909E-03  5559   0.233E-02    0.112E-01
RMM:   5    -0.230928448025E+04    0.15174E-03   -0.55736E-04  4626   0.154E-02    0.484E-02
RMM:   6    -0.230928446518E+04    0.15070E-04   -0.14065E-04  4032   0.110E-02    0.229E-02
RMM:   7    -0.230928446081E+04    0.43750E-05   -0.25228E-05  2891   0.500E-03
  39 F= -.23297322E+04 E0= -.23297322E+04  d E =-.123147E-01  mag=     2.0000
       N       E                     dE             d eps       ncg     rms          rms(c)
DAV:   1    -0.230926467392E+04    0.19791E-01   -0.55622E+00  4432   0.198E+00    0.588E-01
RMM:   2    -0.230929257846E+04   -0.27905E-01   -0.29201E-01  5916   0.356E-01    0.442E-01
RMM:   3    -0.230929581866E+04   -0.32402E-02   -0.27534E-02  5533   0.118E-01    0.670E-01
RMM:   4    -0.230929149672E+04    0.43219E-02   -0.37259E-03  5832   0.342E-02    0.165E-01
RMM:   5    -0.230929113297E+04    0.36376E-03   -0.12396E-03  4813   0.225E-02    0.697E-02
RMM:   6    -0.230929110064E+04    0.32330E-04   -0.30776E-04  4438   0.158E-02    0.326E-02
RMM:   7    -0.230929109078E+04    0.98567E-05   -0.54146E-05  3234   0.628E-03
  40 F= -.23297387E+04 E0= -.23297387E+04  d E =-.188160E-01  mag=     2.0000
       N       E                     dE             d eps       ncg     rms          rms(c)
DAV:   1    -0.230928239527E+04    0.87054E-02   -0.31765E+00  4448   0.150E+00    0.457E-01
RMM:   2    -0.230930407192E+04   -0.21677E-01   -0.22028E-01  6036   0.278E-01    0.467E-01
RMM:   3    -0.230930540010E+04   -0.13282E-02   -0.20717E-02  5611   0.911E-02    0.506E-01
RMM:   4    -0.230930287780E+04    0.25223E-02   -0.25347E-03  5642   0.264E-02    0.133E-01
RMM:   5    -0.230930267224E+04    0.20556E-03   -0.84092E-04  4708   0.174E-02    0.602E-02
RMM:   6    -0.230930265592E+04    0.16318E-04   -0.19671E-04  4194   0.125E-02    0.290E-02
RMM:   7    -0.230930265013E+04    0.57861E-05   -0.40000E-05  2967   0.538E-03
  41 F= -.23297501E+04 E0= -.23297501E+04  d E =-.113578E-01  mag=     2.0000
       N       E                     dE             d eps       ncg     rms          rms(c)
DAV:   1    -0.230926748421E+04    0.35172E-01   -0.64572E+00  4400   0.214E+00    0.643E-01
RMM:   2    -0.230931119882E+04   -0.43715E-01   -0.44658E-01  6018   0.399E-01    0.648E-01
RMM:   3    -0.230931420172E+04   -0.30029E-02   -0.43794E-02  5615   0.133E-01    0.716E-01
RMM:   4    -0.230930916982E+04    0.50319E-02   -0.51014E-03  5819   0.376E-02    0.187E-01
RMM:   5    -0.230930872176E+04    0.44806E-03   -0.18054E-03  4836   0.249E-02    0.840E-02
RMM:   6    -0.230930868069E+04    0.41072E-04   -0.39743E-04  4494   0.175E-02    0.399E-02
RMM:   7    -0.230930866722E+04    0.13470E-04   -0.76470E-05  3413   0.695E-03    0.170E-02
RMM:   8    -0.230930866867E+04   -0.14486E-05   -0.14823E-05  2868   0.493E-03
  42 F= -.23297558E+04 E0= -.23297558E+04  d E =-.170669E-01  mag=     2.0000
       N       E                     dE             d eps       ncg     rms          rms(c)
DAV:   1    -0.230929456013E+04    0.14107E-01   -0.28160E+00  4416   0.142E+00    0.434E-01
RMM:   2    -0.230932243733E+04   -0.27877E-01   -0.27211E-01  6157   0.279E-01    0.619E-01
RMM:   3    -0.230932178805E+04    0.64928E-03   -0.25529E-02  5736   0.911E-02    0.402E-01
RMM:   4    -0.230932023937E+04    0.15487E-02   -0.28167E-03  5460   0.236E-02    0.135E-01
RMM:   5    -0.230932000296E+04    0.23641E-03   -0.76687E-04  4715   0.172E-02    0.529E-02
RMM:   6    -0.230932000638E+04   -0.34157E-05   -0.10503E-04  3504   0.103E-02    0.284E-02
RMM:   7    -0.230932000339E+04    0.29855E-05   -0.25779E-05  2881   0.494E-03
  43 F= -.23297668E+04 E0= -.23297668E+04  d E =-.110337E-01  mag=     2.0000
       N       E                     dE             d eps       ncg     rms          rms(c)
DAV:   1    -0.230923263200E+04    0.87374E-01   -0.10535E+01  4416   0.276E+00    0.831E-01
RMM:   2    -0.230933600849E+04   -0.10338E+00   -0.10165E+00  6148   0.545E-01    0.118E+00
RMM:   3    -0.230933529134E+04    0.71715E-03   -0.10351E-01  5811   0.179E-01    0.800E-01
RMM:   4    -0.230932919209E+04    0.60992E-02   -0.10550E-02  5788   0.460E-02    0.257E-01
RMM:   5    -0.230932825133E+04    0.94076E-03   -0.31694E-03  4946   0.341E-02    0.105E-01
RMM:   6    -0.230932826035E+04   -0.90138E-05   -0.50652E-04  4669   0.193E-02    0.544E-02
RMM:   7    -0.230932824020E+04    0.20145E-04   -0.88690E-05  3469   0.764E-03    0.244E-02
RMM:   8    -0.230932824072E+04   -0.51734E-06   -0.23957E-05  2863   0.546E-03
  44 F= -.23297745E+04 E0= -.23297745E+04  d E =-.186865E-01  mag=     2.0000
       N       E                     dE             d eps       ncg     rms          rms(c)
DAV:   1    -0.230931315314E+04    0.15087E-01   -0.28154E+00  4464   0.139E+00    0.408E-01
RMM:   2    -0.230933958948E+04   -0.26436E-01   -0.27217E-01  6230   0.274E-01    0.478E-01
RMM:   3    -0.230934091812E+04   -0.13286E-02   -0.25172E-02  5758   0.839E-02    0.443E-01
RMM:   4    -0.230933906438E+04    0.18537E-02   -0.29449E-03  5511   0.232E-02    0.136E-01
RMM:   5    -0.230933880137E+04    0.26301E-03   -0.61358E-04  4348   0.145E-02    0.629E-02
RMM:   6    -0.230933878211E+04    0.19260E-04   -0.27705E-04  4064   0.125E-02    0.246E-02
RMM:   7    -0.230933877735E+04    0.47629E-05   -0.26379E-05  2902   0.534E-03
  45 F= -.23297847E+04 E0= -.23297847E+04  d E =-.102406E-01  mag=     2.0000
       N       E                     dE             d eps       ncg     rms          rms(c)
DAV:   1    -0.230913324151E+04    0.20554E+00   -0.23640E+01  4432   0.401E+00    0.117E+00
RMM:   2    -0.230935317137E+04   -0.21993E+00   -0.22882E+00  6278   0.803E-01    0.132E+00
RMM:   3    -0.230937166226E+04   -0.18491E-01   -0.24857E-01  5952   0.252E-01    0.137E+00
RMM:   4    -0.230935438734E+04    0.17275E-01   -0.24668E-02  6053   0.676E-02    0.393E-01
RMM:   5    -0.230935215892E+04    0.22284E-02   -0.61810E-03  4833   0.428E-02    0.194E-01
RMM:   6    -0.230935191215E+04    0.24677E-03   -0.27160E-03  4995   0.326E-02    0.878E-02
RMM:   7    -0.230935186643E+04    0.45715E-04   -0.34887E-04  4644   0.154E-02    0.445E-02
RMM:   8    -0.230935186141E+04    0.50206E-05   -0.91186E-05  2992   0.657E-03
  46 F= -.23297970E+04 E0= -.23297970E+04  d E =-.224857E-01  mag=     2.0000
       N       E                     dE             d eps       ncg     rms          rms(c)
DAV:   1    -0.230934662241E+04    0.52440E-02   -0.18308E+00  4480   0.120E+00    0.416E-01
RMM:   2    -0.230936142200E+04   -0.14800E-01   -0.16540E-01  5963   0.240E-01    0.226E-01
RMM:   3    -0.230936300452E+04   -0.15825E-02   -0.15357E-02  5631   0.841E-02    0.360E-01
RMM:   4    -0.230936195587E+04    0.10487E-02   -0.19629E-03  5643   0.217E-02    0.143E-01
RMM:   5    -0.230936168985E+04    0.26601E-03   -0.57020E-04  4672   0.155E-02    0.511E-02
RMM:   6    -0.230936166592E+04    0.23928E-04   -0.24106E-04  4371   0.122E-02    0.216E-02
RMM:   7    -0.230936166713E+04   -0.12063E-05   -0.24583E-05  2995   0.547E-03
  47 F= -.23298066E+04 E0= -.23298066E+04  d E =-.961805E-02  mag=     2.0000
       N       E                     dE             d eps       ncg     rms          rms(c)
DAV:   1    -0.230935869551E+04    0.29704E-02   -0.53126E-01  4592   0.647E-01    0.224E-01
RMM:   2    -0.230936299800E+04   -0.43025E-02   -0.47961E-02  5972   0.130E-01    0.127E-01
RMM:   3    -0.230936348972E+04   -0.49172E-03   -0.43987E-03  5387   0.439E-02    0.207E-01
RMM:   4    -0.230936312781E+04    0.36192E-03   -0.57272E-04  4162   0.121E-02    0.753E-02
RMM:   5    -0.230936304530E+04    0.82510E-04   -0.17426E-04  4024   0.953E-03    0.279E-02
RMM:   6    -0.230936303290E+04    0.12400E-04   -0.77681E-05  3535   0.784E-03    0.117E-02
RMM:   7    -0.230936303177E+04    0.11209E-05   -0.11118E-05  2850   0.495E-03
  48 F= -.23298079E+04 E0= -.23298079E+04  d E =-.108816E-01  mag=     2.0000
       N       E                     dE             d eps       ncg     rms          rms(c)
DAV:   1    -0.230935930998E+04    0.37229E-02   -0.70182E-01  4448   0.758E-01    0.255E-01
RMM:   2    -0.230936858821E+04   -0.92782E-02   -0.10222E-01  6189   0.161E-01    0.125E-01
RMM:   3    -0.230936934937E+04   -0.76117E-03   -0.10181E-02  5550   0.553E-02    0.106E-01
RMM:   4    -0.230936944821E+04   -0.98840E-04   -0.11202E-03  3637   0.129E-02    0.135E-01
RMM:   5    -0.230936928196E+04    0.16625E-03   -0.20521E-04  3568   0.928E-03    0.458E-02
RMM:   6    -0.230936925630E+04    0.25662E-04   -0.90916E-05  3519   0.711E-03    0.173E-02
RMM:   7    -0.230936925522E+04    0.10850E-05   -0.20824E-05  2891   0.544E-03
  49 F= -.23298140E+04 E0= -.23298140E+04  d E =-.613763E-02  mag=     2.0000
       N       E                     dE             d eps       ncg     rms          rms(c)
DAV:   1    -0.230931827460E+04    0.50982E-01   -0.39928E+00  4400   0.181E+00    0.609E-01
RMM:   2    -0.230937098507E+04   -0.52710E-01   -0.58064E-01  6186   0.385E-01    0.305E-01
RMM:   3    -0.230937567924E+04   -0.46942E-02   -0.59733E-02  5786   0.131E-01    0.300E-01
RMM:   4    -0.230937579317E+04   -0.11394E-03   -0.63114E-03  5754   0.302E-02    0.285E-01
RMM:   5    -0.230937505490E+04    0.73827E-03   -0.11797E-03  5235   0.186E-02    0.119E-01
RMM:   6    -0.230937486203E+04    0.19287E-03   -0.49589E-04  5034   0.133E-02    0.480E-02
RMM:   7    -0.230937484245E+04    0.19574E-04   -0.14365E-04  3740   0.986E-03    0.179E-02
RMM:   8    -0.230937484011E+04    0.23403E-05   -0.23151E-05  2855   0.501E-03
  50 F= -.23298194E+04 E0= -.23298194E+04  d E =-.115140E-01  mag=     2.0000
       N       E                     dE             d eps       ncg     rms          rms(c)
DAV:   1    -0.230936823273E+04    0.66097E-02   -0.74789E-01  4448   0.788E-01    0.263E-01
RMM:   2    -0.230937909064E+04   -0.10858E-01   -0.11920E-01  6248   0.170E-01    0.139E-01
RMM:   3    -0.230938015833E+04   -0.10677E-02   -0.11754E-02  5662   0.590E-02    0.177E-01
RMM:   4    -0.230937997418E+04    0.18415E-03   -0.12787E-03  3570   0.135E-02    0.972E-02
RMM:   5    -0.230937987807E+04    0.96108E-04   -0.15885E-04  3257   0.857E-03    0.463E-02
RMM:   6    -0.230937985374E+04    0.24331E-04   -0.11599E-04  3839   0.783E-03    0.229E-02
RMM:   7    -0.230937985077E+04    0.29718E-05   -0.31336E-05  2881   0.618E-03
  51 F= -.23298243E+04 E0= -.23298243E+04  d E =-.489750E-02  mag=     2.0000
       N       E                     dE             d eps       ncg     rms          rms(c)
DAV:   1    -0.230932980144E+04    0.50052E-01   -0.34825E+00  4400   0.170E+00    0.567E-01
RMM:   2    -0.230938042824E+04   -0.50627E-01   -0.55457E-01  6204   0.369E-01    0.320E-01
RMM:   3    -0.230938591993E+04   -0.54917E-02   -0.57621E-02  5881   0.127E-01    0.436E-01
RMM:   4    -0.230938460737E+04    0.13126E-02   -0.61004E-03  5760   0.298E-02    0.206E-01
RMM:   5    -0.230938418297E+04    0.42440E-03   -0.78452E-04  4671   0.158E-02    0.107E-01
RMM:   6    -0.230938403855E+04    0.14442E-03   -0.51256E-04  4954   0.137E-02    0.586E-02
RMM:   7    -0.230938400664E+04    0.31907E-04   -0.19342E-04  4004   0.116E-02    0.205E-02
RMM:   8    -0.230938400192E+04    0.47212E-05   -0.32263E-05  2894   0.478E-03
  52 F= -.23298282E+04 E0= -.23298282E+04  d E =-.880127E-02  mag=     2.0000
       N       E                     dE             d eps       ncg     rms          rms(c)
DAV:   1    -0.230936927014E+04    0.14737E-01   -0.10975E+00  4408   0.972E-01    0.323E-01
RMM:   2    -0.230938811932E+04   -0.18849E-01   -0.20558E-01  6205   0.227E-01    0.157E-01
RMM:   3    -0.230938971404E+04   -0.15947E-02   -0.20300E-02  5705   0.791E-02    0.109E-01
RMM:   4    -0.230938973516E+04   -0.21122E-04   -0.20629E-03  4173   0.170E-02    0.794E-02
RMM:   5    -0.230938970688E+04    0.28279E-04   -0.24823E-04  3980   0.104E-02    0.854E-02
RMM:   6    -0.230938967944E+04    0.27442E-04   -0.14311E-04  3439   0.781E-03    0.714E-02
RMM:   7    -0.230938963371E+04    0.45735E-04   -0.49750E-05  2946   0.629E-03    0.114E-02
RMM:   8    -0.230938963242E+04    0.12889E-05   -0.10945E-05  2851   0.425E-03
  53 F= -.23298337E+04 E0= -.23298337E+04  d E =-.548755E-02  mag=     2.0000
       N       E                     dE             d eps       ncg     rms          rms(c)
DAV:   1    -0.230935252061E+04    0.37113E-01   -0.21077E+00  4400   0.135E+00    0.449E-01
RMM:   2    -0.230938880976E+04   -0.36289E-01   -0.39564E-01  6181   0.320E-01    0.220E-01
RMM:   3    -0.230939189870E+04   -0.30889E-02   -0.39380E-02  5757   0.108E-01    0.157E-01
RMM:   4    -0.230939193524E+04   -0.36542E-04   -0.39663E-03  4911   0.234E-02    0.124E-01
RMM:   5    -0.230939196505E+04   -0.29812E-04   -0.52621E-04  4433   0.136E-02    0.156E-01
RMM:   6    -0.230939175320E+04    0.21185E-03   -0.31291E-04  4899   0.104E-02    0.739E-02
RMM:   7    -0.230939170144E+04    0.51764E-04   -0.10050E-04  3401   0.787E-03    0.174E-02
RMM:   8    -0.230939169694E+04    0.44983E-05   -0.18145E-05  2851   0.506E-03
  54 F= -.23298355E+04 E0= -.23298355E+04  d E =-.735624E-02  mag=     2.0000
       N       E                     dE             d eps       ncg     rms          rms(c)
DAV:   1    -0.230936389912E+04    0.27802E-01   -0.17576E+00  4400   0.124E+00    0.404E-01
RMM:   2    -0.230939467933E+04   -0.30780E-01   -0.32869E-01  6321   0.290E-01    0.314E-01
RMM:   3    -0.230939853984E+04   -0.38605E-02   -0.34704E-02  5988   0.938E-02    0.450E-01
RMM:   4    -0.230939682391E+04    0.17159E-02   -0.37693E-03  5399   0.251E-02    0.133E-01
RMM:   5    -0.230939662892E+04    0.19499E-03   -0.49903E-04  4049   0.127E-02    0.762E-02
RMM:   6    -0.230939656053E+04    0.68398E-04   -0.30795E-04  4494   0.113E-02    0.467E-02
RMM:   7    -0.230939654194E+04    0.18582E-04   -0.85131E-05  3182   0.904E-03    0.174E-02
RMM:   8    -0.230939653740E+04    0.45410E-05   -0.17425E-05  2845   0.455E-03
  55 F= -.23298404E+04 E0= -.23298404E+04  d E =-.484878E-02  mag=     2.0000
       N       E                     dE             d eps       ncg     rms          rms(c)
DAV:   1    -0.230932364391E+04    0.72898E-01   -0.39945E+00  4400   0.187E+00    0.610E-01
RMM:   2    -0.230939367683E+04   -0.70033E-01   -0.74812E-01  6298   0.441E-01    0.475E-01
RMM:   3    -0.230940242169E+04   -0.87449E-02   -0.80800E-02  6039   0.141E-01    0.670E-01
RMM:   4    -0.230939862323E+04    0.37985E-02   -0.83917E-03  5920   0.377E-02    0.204E-01
RMM:   5    -0.230939818060E+04    0.44263E-03   -0.11849E-03  4700   0.185E-02    0.119E-01
RMM:   6    -0.230939800292E+04    0.17768E-03   -0.70736E-04  4999   0.158E-02    0.743E-02
RMM:   7    -0.230939795207E+04    0.50853E-04   -0.23225E-04  4202   0.130E-02    0.279E-02
RMM:   8    -0.230939793901E+04    0.13055E-04   -0.38954E-05  2935   0.510E-03    0.176E-02
RMM:   9    -0.230939793476E+04    0.42529E-05   -0.13910E-05  2837   0.377E-03
  56 F= -.23298418E+04 E0= -.23298418E+04  d E =-.625839E-02  mag=     2.0000
       N       E                     dE             d eps       ncg     rms          rms(c)
DAV:   1    -0.230937683588E+04    0.21103E-01   -0.16071E+00  4432   0.115E+00    0.381E-01
RMM:   2    -0.230940215221E+04   -0.25316E-01   -0.26548E-01  6292   0.260E-01    0.379E-01
RMM:   3    -0.230940451971E+04   -0.23675E-02   -0.27173E-02  5985   0.838E-02    0.433E-01
RMM:   4    -0.230940290006E+04    0.16196E-02   -0.30388E-03  5404   0.235E-02    0.113E-01
RMM:   5    -0.230940273373E+04    0.16633E-03   -0.42396E-04  4083   0.116E-02    0.660E-02
RMM:   6    -0.230940268256E+04    0.51168E-04   -0.25663E-04  4321   0.116E-02    0.356E-02
RMM:   7    -0.230940267482E+04    0.77418E-05   -0.38654E-05  2936   0.691E-03
  57 F= -.23298466E+04 E0= -.23298466E+04  d E =-.481005E-02  mag=     2.0000
       N       E                     dE             d eps       ncg     rms          rms(c)
DAV:   1    -0.230935630821E+04    0.46374E-01   -0.30300E+00  4400   0.158E+00    0.524E-01
RMM:   2    -0.230940420890E+04   -0.47901E-01   -0.49975E-01  6311   0.357E-01    0.549E-01
RMM:   3    -0.230940823061E+04   -0.40217E-02   -0.51774E-02  6045   0.114E-01    0.586E-01
RMM:   4    -0.230940528061E+04    0.29500E-02   -0.56678E-03  5811   0.320E-02    0.154E-01
RMM:   5    -0.230940497432E+04    0.30629E-03   -0.80140E-04  4454   0.155E-02    0.906E-02
RMM:   6    -0.230940488242E+04    0.91906E-04   -0.48268E-04  4845   0.150E-02    0.501E-02
RMM:   7    -0.230940486554E+04    0.16873E-04   -0.76284E-05  3224   0.864E-03    0.183E-02
RMM:   8    -0.230940486358E+04    0.19598E-05   -0.14511E-05  2836   0.411E-03
  58 F= -.23298489E+04 E0= -.23298489E+04  d E =-.708991E-02  mag=     2.0000
       N       E                     dE             d eps       ncg     rms          rms(c)
DAV:   1    -0.230939903033E+04    0.58352E-02   -0.72815E-01  4512   0.790E-01    0.283E-01
RMM:   2    -0.230940857514E+04   -0.95448E-02   -0.10490E-01  6068   0.166E-01    0.134E-01
RMM:   3    -0.230940935454E+04   -0.77940E-03   -0.90284E-03  5645   0.561E-02    0.171E-01
RMM:   4    -0.230940920969E+04    0.14485E-03   -0.11279E-03  4061   0.139E-02    0.998E-02
RMM:   5    -0.230940909576E+04    0.11393E-03   -0.22269E-04  3936   0.104E-02    0.426E-02
RMM:   6    -0.230940907605E+04    0.19708E-04   -0.95897E-05  3801   0.763E-03    0.186E-02
RMM:   7    -0.230940907387E+04    0.21812E-05   -0.18389E-05  2872   0.583E-03
  59 F= -.23298531E+04 E0= -.23298531E+04  d E =-.417055E-02  mag=     2.0000
       N       E                     dE             d eps       ncg     rms          rms(c)
DAV:   1    -0.230938788529E+04    0.21191E-01   -0.16158E+00  4400   0.118E+00    0.423E-01
RMM:   2    -0.230940907147E+04   -0.21186E-01   -0.23251E-01  6057   0.249E-01    0.203E-01
RMM:   3    -0.230941087427E+04   -0.18028E-02   -0.20164E-02  5733   0.835E-02    0.273E-01
RMM:   4    -0.230941045380E+04    0.42046E-03   -0.25232E-03  5261   0.208E-02    0.145E-01
RMM:   5    -0.230941021249E+04    0.24132E-03   -0.49368E-04  4513   0.140E-02    0.657E-02
RMM:   6    -0.230941016019E+04    0.52294E-04   -0.21294E-04  4468   0.105E-02    0.282E-02
RMM:   7    -0.230941015344E+04    0.67557E-05   -0.41396E-05  2955   0.705E-03
  60 F= -.23298541E+04 E0= -.23298541E+04  d E =-.518486E-02  mag=     2.0000
       N       E                     dE             d eps       ncg     rms          rms(c)
DAV:   1    -0.230940829963E+04    0.18606E-02   -0.15959E-01  4592   0.370E-01    0.131E-01
RMM:   2    -0.230941037388E+04   -0.20742E-02   -0.22732E-02  6146   0.776E-02    0.575E-02
RMM:   3    -0.230941049198E+04   -0.11810E-03   -0.18734E-03  4462   0.261E-02    0.348E-02
RMM:   4    -0.230941049343E+04   -0.14536E-05   -0.21426E-04  3089   0.695E-03    0.322E-02
RMM:   5    -0.230941050012E+04   -0.66841E-05   -0.40721E-05  2891   0.534E-03
  61 F= -.23298544E+04 E0= -.23298544E+04  d E =-.555281E-02  mag=     2.0000
       N       E                     dE             d eps       ncg     rms          rms(c)
DAV:   1    -0.230940040123E+04    0.10092E-01   -0.91494E-01  4416   0.899E-01    0.304E-01
RMM:   2    -0.230941386752E+04   -0.13466E-01   -0.14708E-01  6052   0.196E-01    0.163E-01
RMM:   3    -0.230941494167E+04   -0.10741E-02   -0.12561E-02  5641   0.655E-02    0.213E-01
RMM:   4    -0.230941470334E+04    0.23832E-03   -0.15652E-03  4561   0.157E-02    0.119E-01
RMM:   5    -0.230941453365E+04    0.16969E-03   -0.27433E-04  4184   0.111E-02    0.474E-02
RMM:   6    -0.230941450128E+04    0.32376E-04   -0.14093E-04  4018   0.870E-03    0.170E-02
RMM:   7    -0.230941449777E+04    0.35107E-05   -0.25362E-05  2904   0.663E-03
  62 F= -.23298583E+04 E0= -.23298583E+04  d E =-.388267E-02  mag=     2.0000
       N       E                     dE             d eps       ncg     rms          rms(c)
DAV:   1    -0.230939388843E+04    0.20613E-01   -0.13940E+00  4400   0.111E+00    0.377E-01
RMM:   2    -0.230941442886E+04   -0.20540E-01   -0.22471E-01  6048   0.242E-01    0.203E-01
RMM:   3    -0.230941619228E+04   -0.17634E-02   -0.20054E-02  5699   0.832E-02    0.278E-01
RMM:   4    -0.230941576236E+04    0.42992E-03   -0.24429E-03  5221   0.195E-02    0.145E-01
RMM:   5    -0.230941551155E+04    0.25082E-03   -0.40687E-04  4426   0.132E-02    0.598E-02
RMM:   6    -0.230941545697E+04    0.54572E-04   -0.21335E-04  4334   0.104E-02    0.218E-02
RMM:   7    -0.230941545037E+04    0.66027E-05   -0.41540E-05  2975   0.774E-03
  63 F= -.23298591E+04 E0= -.23298591E+04  d E =-.468848E-02  mag=     2.0000
       N       E                     dE             d eps       ncg     rms          rms(c)
DAV:   1    -0.230941389551E+04    0.15615E-02   -0.11337E-01  4560   0.316E-01    0.106E-01
RMM:   2    -0.230941557329E+04   -0.16778E-02   -0.18110E-02  6180   0.686E-02    0.683E-02
RMM:   3    -0.230941573762E+04   -0.16433E-03   -0.15015E-03  4089   0.236E-02    0.105E-01
RMM:   4    -0.230941565119E+04    0.86429E-04   -0.19643E-04  2999   0.736E-03    0.367E-02
RMM:   5    -0.230941563500E+04    0.16196E-04   -0.39786E-05  2879   0.474E-03    0.168E-02
RMM:   6    -0.230941563253E+04    0.24719E-05   -0.18564E-05  2879   0.432E-03
  64 F= -.23298594E+04 E0= -.23298594E+04  d E =-.491298E-02  mag=     2.0000
       N       E                     dE             d eps       ncg     rms          rms(c)
DAV:   1    -0.230940703944E+04    0.85956E-02   -0.70815E-01  4416   0.798E-01    0.251E-01
RMM:   2    -0.230941892900E+04   -0.11890E-01   -0.12874E-01  6342   0.180E-01    0.135E-01
RMM:   3    -0.230941996171E+04   -0.10327E-02   -0.11547E-02  5588   0.572E-02    0.152E-01
RMM:   4    -0.230941992824E+04    0.33471E-04   -0.13126E-03  3664   0.132E-02    0.110E-01
RMM:   5    -0.230941980413E+04    0.12411E-03   -0.18981E-04  3389   0.935E-03    0.511E-02
RMM:   6    -0.230941977061E+04    0.33521E-04   -0.12561E-04  3868   0.785E-03    0.186E-02
RMM:   7    -0.230941976761E+04    0.29954E-05   -0.26392E-05  2881   0.620E-03
  65 F= -.23298634E+04 E0= -.23298634E+04  d E =-.403236E-02  mag=     2.0000
       N       E                     dE             d eps       ncg     rms          rms(c)
DAV:   1    -0.230930975419E+04    0.11002E+00   -0.63630E+00  4400   0.239E+00    0.761E-01
RMM:   2    -0.230941633647E+04   -0.10658E+00   -0.11585E+00  6217   0.548E-01    0.397E-01
RMM:   3    -0.230942586260E+04   -0.95261E-02   -0.11771E-01  5771   0.178E-01    0.339E-01
RMM:   4    -0.230942657477E+04   -0.71217E-03   -0.12111E-02  5949   0.393E-02    0.366E-01
RMM:   5    -0.230942548552E+04    0.10893E-02   -0.16556E-03  5351   0.216E-02    0.200E-01
RMM:   6    -0.230942503444E+04    0.45108E-03   -0.98114E-04  4894   0.171E-02    0.809E-02
RMM:   7    -0.230942496901E+04    0.65427E-04   -0.41621E-04  4644   0.160E-02    0.309E-02
RMM:   8    -0.230942495798E+04    0.11030E-04   -0.59133E-05  3175   0.631E-03    0.220E-02
RMM:   9    -0.230942495118E+04    0.67992E-05   -0.18200E-05  2841   0.476E-03
  66 F= -.23298682E+04 E0= -.23298682E+04  d E =-.889823E-02  mag=     2.0000
       N       E                     dE             d eps       ncg     rms          rms(c)
DAV:   1    -0.230942056997E+04    0.43880E-02   -0.42096E-01  4512   0.608E-01    0.190E-01
RMM:   2    -0.230942781588E+04   -0.72459E-02   -0.78078E-02  6331   0.139E-01    0.105E-01
RMM:   3    -0.230942852458E+04   -0.70870E-03   -0.74059E-03  5395   0.460E-02    0.127E-01
RMM:   4    -0.230942845713E+04    0.67455E-04   -0.82418E-04  3272   0.107E-02    0.786E-02
RMM:   5    -0.230942839989E+04    0.57242E-04   -0.99975E-05  2921   0.669E-03    0.384E-02
RMM:   6    -0.230942838525E+04    0.14637E-04   -0.71547E-05  3243   0.603E-03    0.208E-02
RMM:   7    -0.230942838350E+04    0.17451E-05   -0.20649E-05  2861   0.527E-03
  67 F= -.23298716E+04 E0= -.23298716E+04  d E =-.333843E-02  mag=     2.0000
       N       E                     dE             d eps       ncg     rms          rms(c)
DAV:   1    -0.230936578281E+04    0.62602E-01   -0.37747E+00  4400   0.182E+00    0.575E-01
RMM:   2    -0.230943127214E+04   -0.65489E-01   -0.70203E-01  6342   0.419E-01    0.380E-01
RMM:   3    -0.230943909865E+04   -0.78265E-02   -0.74170E-02  5991   0.139E-01    0.540E-01
RMM:   4    -0.230943696598E+04    0.21327E-02   -0.77284E-03  5837   0.343E-02    0.221E-01
RMM:   5    -0.230943652542E+04    0.44056E-03   -0.99432E-04  4536   0.169E-02    0.122E-01
RMM:   6    -0.230943637464E+04    0.15078E-03   -0.63823E-04  4815   0.144E-02    0.720E-02
RMM:   7    -0.230943634311E+04    0.31530E-04   -0.23612E-04  4021   0.130E-02    0.270E-02
RMM:   8    -0.230943633416E+04    0.89468E-05   -0.34710E-05  2873   0.497E-03
  68 F= -.23298793E+04 E0= -.23298793E+04  d E =-.110040E-01  mag=     2.0000
       N       E                     dE             d eps       ncg     rms          rms(c)
DAV:   1    -0.230915753327E+04    0.27881E+00   -0.15105E+01  4400   0.364E+00    0.116E+00
RMM:   2    -0.230942451833E+04   -0.26699E+00   -0.28415E+00  6336   0.850E-01    0.885E-01
RMM:   3    -0.230945500007E+04   -0.30482E-01   -0.30277E-01  6074   0.273E-01    0.117E+00
RMM:   4    -0.230944417417E+04    0.10826E-01   -0.30579E-02  6281   0.707E-02    0.443E-01
RMM:   5    -0.230944250304E+04    0.16711E-02   -0.45246E-03  5433   0.334E-02    0.248E-01
RMM:   6    -0.230944186692E+04    0.63611E-03   -0.24920E-03  4929   0.266E-02    0.146E-01
RMM:   7    -0.230944174290E+04    0.12402E-03   -0.10655E-03  4874   0.252E-02    0.577E-02
RMM:   8    -0.230944170655E+04    0.36354E-04   -0.14179E-04  3492   0.844E-03    0.385E-02
RMM:   9    -0.230944168949E+04    0.17057E-04   -0.49230E-05  2866   0.633E-03    0.128E-02
RMM:  10    -0.230944168927E+04    0.22529E-06   -0.24095E-05  2846   0.342E-03
  69 F= -.23298840E+04 E0= -.23298840E+04  d E =-.157688E-01  mag=     2.0000
       N       E                     dE             d eps       ncg     rms          rms(c)
DAV:   1    -0.230943230814E+04    0.93814E-02   -0.73400E-01  4544   0.773E-01    0.251E-01
RMM:   2    -0.230944500016E+04   -0.12692E-01   -0.13533E-01  6363   0.179E-01    0.175E-01
RMM:   3    -0.230944645137E+04   -0.14512E-02   -0.13059E-02  5674   0.568E-02    0.256E-01
RMM:   4    -0.230944592937E+04    0.52199E-03   -0.14989E-03  3864   0.151E-02    0.873E-02
RMM:   5    -0.230944585559E+04    0.73776E-04   -0.17604E-04  3038   0.802E-03    0.490E-02
RMM:   6    -0.230944583617E+04    0.19423E-04   -0.13290E-04  3672   0.753E-03    0.263E-02
RMM:   7    -0.230944583261E+04    0.35627E-05   -0.31367E-05  2900   0.593E-03
  70 F= -.23298880E+04 E0= -.23298880E+04  d E =-.399327E-02  mag=     2.0000
       N       E                     dE             d eps       ncg     rms          rms(c)
DAV:   1    -0.230933345210E+04    0.11238E+00   -0.65869E+00  4400   0.232E+00    0.763E-01
RMM:   2    -0.230944947217E+04   -0.11602E+00   -0.12251E+00  6414   0.546E-01    0.642E-01
RMM:   3    -0.230946273271E+04   -0.13261E-01   -0.13387E-01  6098   0.179E-01    0.807E-01
RMM:   4    -0.230945737978E+04    0.53529E-02   -0.13878E-02  6064   0.467E-02    0.272E-01
RMM:   5    -0.230945672236E+04    0.65742E-03   -0.17308E-03  4742   0.212E-02    0.158E-01
RMM:   6    -0.230945650715E+04    0.21521E-03   -0.11091E-03  4874   0.180E-02    0.966E-02
RMM:   7    -0.230945645311E+04    0.54037E-04   -0.42853E-04  4284   0.164E-02    0.361E-02
RMM:   8    -0.230945643804E+04    0.15073E-04   -0.56002E-05  2943   0.544E-03    0.228E-02
RMM:   9    -0.230945643255E+04    0.54957E-05   -0.19723E-05  2837   0.374E-03
  71 F= -.23298981E+04 E0= -.23298981E+04  d E =-.141289E-01  mag=     2.0000
       N       E                     dE             d eps       ncg     rms          rms(c)
DAV:   1    -0.230897087390E+04    0.48556E+00   -0.26337E+01  4400   0.464E+00    0.155E+00
RMM:   2    -0.230945430972E+04   -0.48344E+00   -0.50362E+00  6426   0.111E+00    0.152E+00
RMM:   3    -0.230949232311E+04   -0.38013E-01   -0.53393E-01  6148   0.354E-01    0.151E+00
RMM:   4    -0.230947316841E+04    0.19155E-01   -0.53336E-02  6220   0.921E-02    0.548E-01
RMM:   5    -0.230947060302E+04    0.25654E-02   -0.76455E-03  5362   0.417E-02    0.312E-01
RMM:   6    -0.230946976879E+04    0.83423E-03   -0.41129E-03  4923   0.335E-02    0.189E-01
RMM:   7    -0.230946957048E+04    0.19830E-03   -0.17871E-03  5017   0.312E-02    0.769E-02
RMM:   8    -0.230946951538E+04    0.55108E-04   -0.20699E-04  3541   0.920E-03    0.487E-02
RMM:   9    -0.230946948862E+04    0.26751E-04   -0.80021E-05  2902   0.697E-03    0.144E-02
RMM:  10    -0.230946949002E+04   -0.13987E-05   -0.28424E-05  2871   0.359E-03
  72 F= -.23299102E+04 E0= -.23299102E+04  d E =-.261756E-01  mag=     2.0000
       N       E                     dE             d eps       ncg     rms          rms(c)
DAV:   1    -0.230738970637E+04    0.20798E+01   -0.10533E+02  4400   0.930E+00    0.325E+00
RMM:   2    -0.230956625280E+04   -0.21765E+01   -0.21783E+01  6479   0.230E+00    0.428E+00
RMM:   3    -0.230951447682E+04    0.51776E-01   -0.21089E+00  6127   0.718E-01    0.228E+00
RMM:   4    -0.230947559125E+04    0.38886E-01   -0.21784E-01  6111   0.178E-01    0.107E+00
RMM:   5    -0.230946510866E+04    0.10483E-01   -0.23634E-02  4980   0.761E-02    0.596E-01
RMM:   6    -0.230946193288E+04    0.31758E-02   -0.13891E-02  5093   0.700E-02    0.292E-01
RMM:   7    -0.230946186577E+04    0.67109E-04   -0.42876E-03  5619   0.477E-02    0.195E-01
RMM:   8    -0.230946155384E+04    0.31193E-03   -0.48658E-04  4182   0.143E-02    0.853E-02
RMM:   9    -0.230946148601E+04    0.67830E-04   -0.21433E-04  3516   0.954E-03    0.276E-02
RMM:  10    -0.230946148901E+04   -0.29991E-05   -0.50152E-05  2939   0.586E-03
  73 F= -.23298997E+04 E0= -.23298997E+04  d E =-.156464E-01  mag=     2.0000
       N       E                     dE             d eps       ncg     rms          rms(c)
DAV:   1    -0.230835336673E+04    0.11081E+01   -0.58062E+01  4400   0.691E+00    0.231E+00
RMM:   2    -0.230944016236E+04   -0.10868E+01   -0.11339E+01  6465   0.165E+00    0.221E+00
RMM:   3    -0.230950888136E+04   -0.68719E-01   -0.11320E+00  6160   0.513E-01    0.200E+00
RMM:   4    -0.230948097198E+04    0.27909E-01   -0.11258E-01  6193   0.129E-01    0.884E-01
RMM:   5    -0.230947467593E+04    0.62961E-02   -0.16337E-02  5718   0.589E-02    0.485E-01
RMM:   6    -0.230947216207E+04    0.25139E-02   -0.85662E-03  5302   0.493E-02    0.185E-01
RMM:   7    -0.230947222181E+04   -0.59744E-04   -0.20896E-03  5117   0.339E-02    0.121E-01
RMM:   8    -0.230947215493E+04    0.66885E-04   -0.27366E-04  4018   0.119E-02    0.757E-02
RMM:   9    -0.230947209892E+04    0.56012E-04   -0.13456E-04  3089   0.799E-03    0.216E-02
RMM:  10    -0.230947209958E+04   -0.66726E-06   -0.48183E-05  2917   0.483E-03
  74 F= -.23299122E+04 E0= -.23299122E+04  d E =-.282111E-01  mag=     2.0000
       N       E                     dE             d eps       ncg     rms          rms(c)
DAV:   1    -0.230935972403E+04    0.11237E+00   -0.65113E+00  4400   0.224E+00    0.791E-01
RMM:   2    -0.230947790580E+04   -0.11818E+00   -0.12735E+00  6338   0.550E-01    0.439E-01
RMM:   3    -0.230948952167E+04   -0.11616E-01   -0.13505E-01  5978   0.176E-01    0.474E-01
RMM:   4    -0.230948885041E+04    0.67126E-03   -0.13633E-02  6044   0.409E-02    0.345E-01
RMM:   5    -0.230948786065E+04    0.98976E-03   -0.16914E-03  4850   0.204E-02    0.171E-01
RMM:   6    -0.230948755144E+04    0.30921E-03   -0.10549E-03  5047   0.171E-02    0.953E-02
RMM:   7    -0.230948749362E+04    0.57819E-04   -0.51975E-04  4422   0.169E-02    0.346E-02
RMM:   8    -0.230948747837E+04    0.15255E-04   -0.70040E-05  3021   0.599E-03    0.215E-02
RMM:   9    -0.230948747222E+04    0.61436E-05   -0.18359E-05  2838   0.407E-03
  75 F= -.23299270E+04 E0= -.23299270E+04  d E =-.147582E-01  mag=     2.0000
       N       E                     dE             d eps       ncg     rms          rms(c)
DAV:   1    -0.230871343870E+04    0.77404E+00   -0.38992E+01  4400   0.549E+00    0.197E+00
RMM:   2    -0.230945563972E+04   -0.74220E+00   -0.79199E+00  6394   0.138E+00    0.138E+00
RMM:   3    -0.230952929569E+04   -0.73656E-01   -0.82645E-01  6153   0.437E-01    0.171E+00
RMM:   4    -0.230950679824E+04    0.22497E-01   -0.82555E-02  6386   0.111E-01    0.785E-01
RMM:   5    -0.230950197281E+04    0.48254E-02   -0.12104E-02  5645   0.530E-02    0.423E-01
RMM:   6    -0.230950016728E+04    0.18055E-02   -0.62484E-03  4994   0.394E-02    0.232E-01
RMM:   7    -0.230949991554E+04    0.25174E-03   -0.34322E-03  5200   0.408E-02    0.103E-01
RMM:   8    -0.230949982261E+04    0.92926E-04   -0.37788E-04  4173   0.127E-02    0.641E-02
RMM:   9    -0.230949976692E+04    0.55689E-04   -0.11169E-04  3007   0.836E-03    0.210E-02
RMM:  10    -0.230949976546E+04    0.14634E-05   -0.53702E-05  2923   0.495E-03
  76 F= -.23299375E+04 E0= -.23299375E+04  d E =-.252974E-01  mag=     2.0000
       N       E                     dE             d eps       ncg     rms          rms(c)
DAV:   1    -0.230945421483E+04    0.45552E-01   -0.23616E+00  4416   0.135E+00    0.474E-01
RMM:   2    -0.230949707686E+04   -0.42862E-01   -0.45960E-01  6356   0.325E-01    0.287E-01
RMM:   3    -0.230950132091E+04   -0.42441E-02   -0.44687E-02  5883   0.103E-01    0.356E-01
RMM:   4    -0.230950072158E+04    0.59933E-03   -0.48681E-03  5271   0.248E-02    0.184E-01
RMM:   5    -0.230950039495E+04    0.32663E-03   -0.58475E-04  4517   0.131E-02    0.954E-02
RMM:   6    -0.230950030648E+04    0.88462E-04   -0.43869E-04  4613   0.123E-02    0.252E-02
RMM:   7    -0.230950030456E+04    0.19288E-05   -0.47189E-05  2906   0.815E-03
  77 F= -.23299385E+04 E0= -.23299385E+04  d E =-.263037E-01  mag=     2.0000
       N       E                     dE             d eps       ncg     rms          rms(c)
DAV:   1    -0.230927579150E+04    0.22451E+00   -0.11922E+01  4400   0.300E+00    0.108E+00
RMM:   2    -0.230950004636E+04   -0.22425E+00   -0.24290E+00  6383   0.762E-01    0.565E-01
RMM:   3    -0.230952086592E+04   -0.20820E-01   -0.26544E-01  5897   0.232E-01    0.488E-01
RMM:   4    -0.230952189831E+04   -0.10324E-02   -0.24830E-02  5992   0.511E-02    0.453E-01
RMM:   5    -0.230952039208E+04    0.15062E-02   -0.29354E-03  5494   0.264E-02    0.309E-01
RMM:   6    -0.230951946919E+04    0.92288E-03   -0.17303E-03  5211   0.208E-02    0.130E-01
RMM:   7    -0.230951933506E+04    0.13413E-03   -0.11037E-03  5234   0.219E-02    0.471E-02
RMM:   8    -0.230951931087E+04    0.24194E-04   -0.13033E-04  3289   0.790E-03    0.294E-02
RMM:   9    -0.230951929774E+04    0.13131E-04   -0.31736E-05  2863   0.521E-03    0.127E-02
RMM:  10    -0.230951929640E+04    0.13419E-05   -0.17763E-05  2863   0.322E-03
  78 F= -.23299564E+04 E0= -.23299564E+04  d E =-.178437E-01  mag=     2.0000
       N       E                     dE             d eps       ncg     rms          rms(c)
DAV:   1    -0.230928903149E+04    0.23027E+00   -0.11795E+01  4400   0.298E+00    0.107E+00
RMM:   2    -0.230950878434E+04   -0.21975E+00   -0.23793E+00  6384   0.758E-01    0.575E-01
RMM:   3    -0.230953077387E+04   -0.21990E-01   -0.26203E-01  5929   0.236E-01    0.626E-01
RMM:   4    -0.230953049458E+04    0.27929E-03   -0.24310E-02  6137   0.517E-02    0.453E-01
RMM:   5    -0.230952870833E+04    0.17862E-02   -0.29563E-03  5327   0.277E-02    0.266E-01
RMM:   6    -0.230952799224E+04    0.71609E-03   -0.18904E-03  5082   0.217E-02    0.119E-01
RMM:   7    -0.230952789169E+04    0.10054E-03   -0.96320E-04  4944   0.223E-02    0.466E-02
RMM:   8    -0.230952786391E+04    0.27786E-04   -0.12945E-04  3375   0.781E-03    0.270E-02
RMM:   9    -0.230952785285E+04    0.11061E-04   -0.32935E-05  2864   0.556E-03    0.114E-02
RMM:  10    -0.230952785298E+04   -0.13312E-06   -0.15802E-05  2865   0.309E-03
  79 F= -.23299637E+04 E0= -.23299637E+04  d E =-.251573E-01  mag=     2.0000
       N       E                     dE             d eps       ncg     rms          rms(c)
DAV:   1    -0.230944682657E+04    0.81026E-01   -0.53963E+00  4400   0.213E+00    0.744E-01
RMM:   2    -0.230953756358E+04   -0.90737E-01   -0.98577E-01  6272   0.529E-01    0.423E-01
RMM:   3    -0.230954654435E+04   -0.89808E-02   -0.10312E-01  5889   0.164E-01    0.568E-01
RMM:   4    -0.230954472206E+04    0.18223E-02   -0.10114E-02  6086   0.379E-02    0.270E-01
RMM:   5    -0.230954399633E+04    0.72573E-03   -0.13315E-03  5016   0.211E-02    0.151E-01
RMM:   6    -0.230954377916E+04    0.21717E-03   -0.96200E-04  4786   0.177E-02    0.615E-02
RMM:   7    -0.230954374575E+04    0.33412E-04   -0.28796E-04  4336   0.152E-02    0.273E-02
RMM:   8    -0.230954373476E+04    0.10985E-04   -0.51980E-05  2990   0.539E-03    0.127E-02
RMM:   9    -0.230954373310E+04    0.16651E-05   -0.12103E-05  2847   0.359E-03
  80 F= -.23299786E+04 E0= -.23299786E+04  d E =-.149222E-01  mag=     2.0000
       N       E                     dE             d eps       ncg     rms          rms(c)
DAV:   1    -0.230946647253E+04    0.77262E-01   -0.46193E+00  4400   0.197E+00    0.687E-01
RMM:   2    -0.230954397411E+04   -0.77502E-01   -0.84226E-01  6277   0.489E-01    0.391E-01
RMM:   3    -0.230955165149E+04   -0.76774E-02   -0.87882E-02  5880   0.154E-01    0.524E-01
RMM:   4    -0.230955011431E+04    0.15372E-02   -0.86141E-03  6020   0.352E-02    0.251E-01
RMM:   5    -0.230954949078E+04    0.62354E-03   -0.11859E-03  4874   0.198E-02    0.138E-01
RMM:   6    -0.230954930400E+04    0.18678E-03   -0.83589E-04  4747   0.166E-02    0.553E-02
RMM:   7    -0.230954927654E+04    0.27456E-04   -0.23856E-04  4177   0.142E-02    0.249E-02
RMM:   8    -0.230954926715E+04    0.93950E-05   -0.45934E-05  2964   0.512E-03
  81 F= -.23299832E+04 E0= -.23299832E+04  d E =-.195505E-01  mag=     2.0000
       N       E                     dE             d eps       ncg     rms          rms(c)
DAV:   1    -0.230944302648E+04    0.10625E+00   -0.70693E+00  4400   0.254E+00    0.825E-01
RMM:   2    -0.230955649882E+04   -0.11347E+00   -0.12238E+00  6296   0.615E-01    0.591E-01
RMM:   3    -0.230957000967E+04   -0.13511E-01   -0.13041E-01  5958   0.193E-01    0.865E-01
RMM:   4    -0.230956402724E+04    0.59824E-02   -0.13316E-02  6216   0.484E-02    0.270E-01
RMM:   5    -0.230956338909E+04    0.63815E-03   -0.21354E-03  5177   0.252E-02    0.162E-01
RMM:   6    -0.230956318655E+04    0.20254E-03   -0.11065E-03  4795   0.195E-02    0.601E-02
RMM:   7    -0.230956316269E+04    0.23865E-04   -0.23196E-04  4328   0.148E-02    0.287E-02
RMM:   8    -0.230956315076E+04    0.11923E-04   -0.45800E-05  2926   0.519E-03    0.136E-02
RMM:   9    -0.230956315029E+04    0.47659E-06   -0.13800E-05  2850   0.349E-03
  82 F= -.23299963E+04 E0= -.23299963E+04  d E =-.130199E-01  mag=     2.0000
       N       E                     dE             d eps       ncg     rms          rms(c)
DAV:   1    -0.230954128266E+04    0.21868E-01   -0.14104E+00  4528   0.113E+00    0.366E-01
RMM:   2    -0.230956373465E+04   -0.22452E-01   -0.24294E-01  6259   0.272E-01    0.243E-01
RMM:   3    -0.230956624485E+04   -0.25102E-02   -0.24215E-02  5781   0.842E-02    0.363E-01
RMM:   4    -0.230956525207E+04    0.99278E-03   -0.26493E-03  5125   0.211E-02    0.120E-01
RMM:   5    -0.230956511614E+04    0.13594E-03   -0.37792E-04  4076   0.120E-02    0.688E-02
RMM:   6    -0.230956508015E+04    0.35989E-04   -0.20289E-04  4119   0.985E-03    0.233E-02
RMM:   7    -0.230956507724E+04    0.29112E-05   -0.37537E-05  2937   0.765E-03
  83 F= -.23299978E+04 E0= -.23299978E+04  d E =-.145578E-01  mag=     2.0000
       N       E                     dE             d eps       ncg     rms          rms(c)
DAV:   1    -0.230954037579E+04    0.24704E-01   -0.30172E+00  4400   0.174E+00    0.494E-01
RMM:   2    -0.230957169183E+04   -0.31316E-01   -0.34218E-01  6121   0.377E-01    0.279E-01
RMM:   3    -0.230957378126E+04   -0.20894E-02   -0.30246E-02  5729   0.111E-01    0.367E-01
RMM:   4    -0.230957302787E+04    0.75339E-03   -0.36592E-03  5914   0.275E-02    0.183E-01
RMM:   5    -0.230957266747E+04    0.36040E-03   -0.68156E-04  4879   0.184E-02    0.877E-02
RMM:   6    -0.230957260997E+04    0.57500E-04   -0.32835E-04  4640   0.140E-02    0.283E-02
RMM:   7    -0.230957260314E+04    0.68322E-05   -0.48905E-05  3150   0.751E-03
  84 F= -.23300051E+04 E0= -.23300051E+04  d E =-.728669E-02  mag=     2.0000
       N       E                     dE             d eps       ncg     rms          rms(c)
DAV:   1    -0.230956388233E+04    0.87276E-02   -0.86990E-01  4480   0.936E-01    0.266E-01
RMM:   2    -0.230957290156E+04   -0.90192E-02   -0.98686E-02  6112   0.203E-01    0.146E-01
RMM:   3    -0.230957347252E+04   -0.57096E-03   -0.85133E-03  5547   0.574E-02    0.183E-01
RMM:   4    -0.230957331205E+04    0.16048E-03   -0.10368E-03  4357   0.146E-02    0.101E-01
RMM:   5    -0.230957320055E+04    0.11149E-03   -0.20132E-04  4131   0.111E-02    0.467E-02
RMM:   6    -0.230957318398E+04    0.16577E-04   -0.95499E-05  3787   0.868E-03    0.147E-02
RMM:   7    -0.230957318299E+04    0.98273E-06   -0.15653E-05  2876   0.566E-03
  85 F= -.23300055E+04 E0= -.23300055E+04  d E =-.773742E-02  mag=     2.0000
       N       E                     dE             d eps       ncg     rms          rms(c)
DAV:   1    -0.230955059910E+04    0.22585E-01   -0.36486E+00  4400   0.198E+00    0.499E-01
RMM:   2    -0.230957825303E+04   -0.27654E-01   -0.29754E-01  6009   0.392E-01    0.306E-01
RMM:   3    -0.230958104516E+04   -0.27921E-02   -0.26231E-02  5690   0.117E-01    0.508E-01
RMM:   4    -0.230957889692E+04    0.21482E-02   -0.32073E-03  5965   0.311E-02    0.151E-01
RMM:   5    -0.230957865663E+04    0.24029E-03   -0.87683E-04  4720   0.204E-02    0.723E-02
RMM:   6    -0.230957863760E+04    0.19034E-04   -0.24607E-04  4415   0.142E-02    0.214E-02
RMM:   7    -0.230957863583E+04    0.17713E-05   -0.27627E-05  2966   0.588E-03
  86 F= -.23300106E+04 E0= -.23300106E+04  d E =-.504643E-02  mag=     2.0000
       N       E                     dE             d eps       ncg     rms          rms(c)
DAV:   1    -0.230957525518E+04    0.33824E-02   -0.49016E-01  4576   0.727E-01    0.184E-01
RMM:   2    -0.230957898679E+04   -0.37316E-02   -0.40049E-02  6011   0.144E-01    0.116E-01
RMM:   3    -0.230957937931E+04   -0.39252E-03   -0.34690E-03  5320   0.421E-02    0.195E-01
RMM:   4    -0.230957905991E+04    0.31940E-03   -0.42712E-04  3900   0.116E-02    0.541E-02
RMM:   5    -0.230957902925E+04    0.30657E-04   -0.12452E-04  3860   0.872E-03    0.260E-02
RMM:   6    -0.230957902737E+04    0.18798E-05   -0.30110E-05  2955   0.652E-03
  87 F= -.23300108E+04 E0= -.23300108E+04  d E =-.528873E-02  mag=     2.0000
       N       E                     dE             d eps       ncg     rms          rms(c)
DAV:   1    -0.230957386400E+04    0.51653E-02   -0.17824E+00  4400   0.141E+00    0.348E-01
RMM:   2    -0.230958449509E+04   -0.10631E-01   -0.11693E-01  5845   0.257E-01    0.168E-01
RMM:   3    -0.230958472821E+04   -0.23313E-03   -0.97625E-03  5190   0.811E-02    0.109E-01
RMM:   4    -0.230958487545E+04   -0.14724E-03   -0.14199E-03  5086   0.240E-02    0.165E-01
[...]
       N       E                     dE             d eps       ncg     rms          rms(c)
DAV:   1    -0.230968502588E+04    0.10522E-03   -0.76256E-02  4592   0.275E-01    0.781E-02
RMM:   2    -0.230968524334E+04   -0.21746E-03   -0.24381E-03  5794   0.463E-02    0.408E-02
RMM:   3    -0.230968527797E+04   -0.34631E-04   -0.18721E-04  3563   0.144E-02    0.763E-02
RMM:   4    -0.230968522569E+04    0.52285E-04   -0.43326E-05  2881   0.593E-03    0.218E-02
RMM:   5    -0.230968522060E+04    0.50859E-05   -0.26036E-05  2960   0.481E-03
 175 F= -.23301152E+04 E0= -.23301152E+04  d E =-.131867E-02  mag=     2.0000
       N       E                     dE             d eps       ncg     rms          rms(c)
DAV:   1    -0.230968557905E+04   -0.35337E-03   -0.41707E-01  4400   0.630E-01    0.155E-01
RMM:   2    -0.230968665129E+04   -0.10722E-02   -0.11840E-02  5761   0.102E-01    0.984E-02
RMM:   3    -0.230968684209E+04   -0.19080E-03   -0.95361E-04  5168   0.334E-02    0.175E-01
RMM:   4    -0.230968655626E+04    0.28582E-03   -0.21298E-04  4024   0.102E-02    0.463E-02
RMM:   5    -0.230968653643E+04    0.19831E-04   -0.10859E-04  3999   0.900E-03    0.114E-02
RMM:   6    -0.230968653755E+04   -0.11212E-05   -0.11283E-05  2858   0.598E-03
 176 F= -.23301164E+04 E0= -.23301164E+04  d E =-.126235E-02  mag=     2.0000
       N       E                     dE             d eps       ncg     rms          rms(c)
DAV:   1    -0.230968498865E+04    0.15478E-02   -0.10362E+00  4400   0.994E-01    0.244E-01
RMM:   2    -0.230968767851E+04   -0.26899E-02   -0.29532E-02  5627   0.160E-01    0.161E-01
RMM:   3    -0.230968814715E+04   -0.46865E-03   -0.23599E-03  5374   0.499E-02    0.282E-01
RMM:   4    -0.230968740179E+04    0.74537E-03   -0.54367E-04  5386   0.160E-02    0.719E-02
RMM:   5    -0.230968735275E+04    0.49041E-04   -0.26771E-04  4384   0.131E-02    0.175E-02
RMM:   6    -0.230968735393E+04   -0.11861E-05   -0.23103E-05  2902   0.801E-03
 177 F= -.23301172E+04 E0= -.23301172E+04  d E =-.199704E-02  mag=     2.0000
       N       E                     dE             d eps       ncg     rms          rms(c)
DAV:   1    -0.230968789535E+04   -0.54260E-03   -0.30206E-01  4448   0.529E-01    0.131E-01
RMM:   2    -0.230968870937E+04   -0.81402E-03   -0.87806E-03  5667   0.854E-02    0.960E-02
RMM:   3    -0.230968884955E+04   -0.14019E-03   -0.70013E-04  4844   0.257E-02    0.159E-01
RMM:   4    -0.230968861198E+04    0.23757E-03   -0.15650E-04  3595   0.890E-03    0.375E-02
RMM:   5    -0.230968860053E+04    0.11449E-04   -0.86082E-05  3844   0.778E-03    0.102E-02
RMM:   6    -0.230968860093E+04   -0.39639E-06   -0.86786E-06  2834   0.545E-03
 178 F= -.23301184E+04 E0= -.23301184E+04  d E =-.123085E-02  mag=     2.0000
       N       E                     dE             d eps       ncg     rms          rms(c)
DAV:   1    -0.230968514747E+04    0.34531E-02   -0.20879E+00  4400   0.139E+00    0.341E-01
RMM:   2    -0.230969066102E+04   -0.55135E-02   -0.60086E-02  5661   0.223E-01    0.247E-01
RMM:   3    -0.230969159771E+04   -0.93669E-03   -0.47558E-03  5496   0.685E-02    0.411E-01
RMM:   4    -0.230968999984E+04    0.15979E-02   -0.10853E-03  5599   0.225E-02    0.988E-02
RMM:   5    -0.230968991348E+04    0.86365E-04   -0.56778E-04  4635   0.179E-02    0.264E-02
RMM:   6    -0.230968991163E+04    0.18508E-05   -0.46920E-05  3158   0.105E-02
 179 F= -.23301197E+04 E0= -.23301197E+04  d E =-.250628E-02  mag=     2.0000
       N       E                     dE             d eps       ncg     rms          rms(c)
DAV:   1    -0.230968991015E+04    0.33239E-05   -0.59316E-01  4432   0.735E-01    0.177E-01
RMM:   2    -0.230969164413E+04   -0.17340E-02   -0.18252E-02  5765   0.119E-01    0.144E-01
RMM:   3    -0.230969187115E+04   -0.22702E-03   -0.14890E-03  5292   0.347E-02    0.208E-01
RMM:   4    -0.230969146167E+04    0.40948E-03   -0.29816E-04  4577   0.119E-02    0.526E-02
RMM:   5    -0.230969144184E+04    0.19837E-04   -0.15795E-04  4071   0.983E-03    0.135E-02
RMM:   6    -0.230969144256E+04   -0.72557E-06   -0.14626E-05  2861   0.646E-03
 180 F= -.23301212E+04 E0= -.23301212E+04  d E =-.150684E-02  mag=     2.0000
       N       E                     dE             d eps       ncg     rms          rms(c)
DAV:   1    -0.230968576447E+04    0.56774E-02   -0.27292E+00  4432   0.158E+00    0.377E-01
RMM:   2    -0.230969358448E+04   -0.78200E-02   -0.83177E-02  5766   0.254E-01    0.300E-01
RMM:   3    -0.230969464795E+04   -0.10635E-02   -0.68935E-03  5595   0.751E-02    0.442E-01
RMM:   4    -0.230969279964E+04    0.18483E-02   -0.13598E-03  5650   0.252E-02    0.113E-01
RMM:   5    -0.230969270408E+04    0.95561E-04   -0.70038E-04  4643   0.196E-02    0.290E-02
RMM:   6    -0.230969270567E+04   -0.15900E-05   -0.60393E-05  3270   0.114E-02
 181 F= -.23301224E+04 E0= -.23301224E+04  d E =-.272951E-02  mag=     2.0000
       N       E                     dE             d eps       ncg     rms          rms(c)
DAV:   1    -0.230969251539E+04    0.18869E-03   -0.72653E-01  4448   0.808E-01    0.194E-01
RMM:   2    -0.230969466026E+04   -0.21449E-02   -0.23270E-02  5806   0.132E-01    0.137E-01
RMM:   3    -0.230969499069E+04   -0.33043E-03   -0.19081E-03  5392   0.376E-02    0.225E-01
RMM:   4    -0.230969452878E+04    0.46191E-03   -0.37184E-04  4658   0.127E-02    0.615E-02
RMM:   5    -0.230969450199E+04    0.26787E-04   -0.18761E-04  4118   0.105E-02    0.152E-02
RMM:   6    -0.230969450361E+04   -0.16217E-05   -0.17745E-05  2866   0.692E-03
 182 F= -.23301241E+04 E0= -.23301241E+04  d E =-.174472E-02  mag=     2.0000
       N       E                     dE             d eps       ncg     rms          rms(c)
DAV:   1    -0.230968455962E+04    0.99424E-02   -0.43320E+00  4400   0.197E+00    0.470E-01
RMM:   2    -0.230969716643E+04   -0.12607E-01   -0.13761E-01  5787   0.321E-01    0.333E-01
RMM:   3    -0.230969903416E+04   -0.18677E-02   -0.11145E-02  5607   0.951E-02    0.540E-01
RMM:   4    -0.230969635435E+04    0.26798E-02   -0.21770E-03  5858   0.309E-02    0.150E-01
RMM:   5    -0.230969618355E+04    0.17080E-03   -0.10738E-03  4604   0.238E-02    0.374E-02
RMM:   6    -0.230969618938E+04   -0.58302E-05   -0.10070E-04  3564   0.140E-02    0.188E-02
RMM:   7    -0.230969618861E+04    0.77182E-06   -0.17842E-05  2876   0.365E-03
 183 F= -.23301257E+04 E0= -.23301257E+04  d E =-.331650E-02  mag=     2.0000
       N       E                     dE             d eps       ncg     rms          rms(c)
DAV:   1    -0.230969541765E+04    0.77173E-03   -0.10110E+00  4400   0.942E-01    0.224E-01
RMM:   2    -0.230969829921E+04   -0.28816E-02   -0.32097E-02  5787   0.153E-01    0.138E-01
RMM:   3    -0.230969861908E+04   -0.31988E-03   -0.25297E-03  5407   0.470E-02    0.218E-01
RMM:   4    -0.230969822133E+04    0.39775E-03   -0.46727E-04  4760   0.139E-02    0.828E-02
RMM:   5    -0.230969816631E+04    0.55029E-04   -0.23953E-04  4211   0.120E-02    0.186E-02
RMM:   6    -0.230969816891E+04   -0.26064E-05   -0.25053E-05  2888   0.742E-03
 184 F= -.23301277E+04 E0= -.23301277E+04  d E =-.196736E-02  mag=     2.0000
       N       E                     dE             d eps       ncg     rms          rms(c)
DAV:   1    -0.230967525143E+04    0.22915E-01   -0.90817E+00  4400   0.282E+00    0.668E-01
RMM:   2    -0.230970109680E+04   -0.25845E-01   -0.28844E-01  5794   0.459E-01    0.410E-01
RMM:   3    -0.230970359080E+04   -0.24940E-02   -0.22058E-02  5625   0.134E-01    0.626E-01
RMM:   4    -0.230970037931E+04    0.32115E-02   -0.41068E-03  6055   0.407E-02    0.257E-01
RMM:   5    -0.230969984429E+04    0.53502E-03   -0.20355E-03  4602   0.330E-02    0.564E-02
RMM:   6    -0.230969986563E+04   -0.21341E-04   -0.21749E-04  4039   0.193E-02    0.259E-02
RMM:   7    -0.230969986639E+04   -0.76127E-06   -0.32295E-05  3050   0.468E-03
 185 F= -.23301294E+04 E0= -.23301294E+04  d E =-.365874E-02  mag=     2.0000
       N       E                     dE             d eps       ncg     rms          rms(c)
DAV:   1    -0.230969876277E+04    0.11029E-02   -0.47332E-01  4480   0.643E-01    0.152E-01
RMM:   2    -0.230970008160E+04   -0.13188E-02   -0.14936E-02  5838   0.105E-01    0.876E-02
RMM:   3    -0.230970015609E+04   -0.74493E-04   -0.11128E-03  4935   0.306E-02    0.116E-01
RMM:   4    -0.230970006654E+04    0.89554E-04   -0.19510E-04  3504   0.913E-03    0.677E-02
RMM:   5    -0.230970002936E+04    0.37179E-04   -0.12207E-04  3878   0.892E-03    0.135E-02
RMM:   6    -0.230970002990E+04   -0.53948E-06   -0.14565E-05  2856   0.564E-03
 186 F= -.23301295E+04 E0= -.23301295E+04  d E =-.381933E-02  mag=     2.0000
       N       E                     dE             d eps       ncg     rms          rms(c)
DAV:   1    -0.230969827107E+04    0.17583E-02   -0.18047E+00  4432   0.125E+00    0.308E-01
RMM:   2    -0.230970306968E+04   -0.47986E-02   -0.54772E-02  5747   0.202E-01    0.168E-01
RMM:   3    -0.230970316758E+04   -0.97900E-04   -0.39483E-03  5392   0.600E-02    0.194E-01
RMM:   4    -0.230970301944E+04    0.14813E-03   -0.72949E-04  5372   0.174E-02    0.152E-01
RMM:   5    -0.230970281464E+04    0.20480E-03   -0.44626E-04  4568   0.158E-02    0.259E-02
RMM:   6    -0.230970281512E+04   -0.48266E-06   -0.46617E-05  2979   0.889E-03
 187 F= -.23301324E+04 E0= -.23301324E+04  d E =-.288917E-02  mag=     2.0000
       N       E                     dE             d eps       ncg     rms          rms(c)
DAV:   1    -0.230969293440E+04    0.98802E-02   -0.42934E+00  4432   0.193E+00    0.476E-01
RMM:   2    -0.230970445060E+04   -0.11516E-01   -0.13082E-01  5733   0.312E-01    0.260E-01
RMM:   3    -0.230970469581E+04   -0.24520E-03   -0.93995E-03  5447   0.888E-02    0.294E-01
RMM:   4    -0.230970440240E+04    0.29341E-03   -0.17481E-03  5868   0.267E-02    0.241E-01
RMM:   5    -0.230970389867E+04    0.50374E-03   -0.10428E-03  4802   0.236E-02    0.401E-02
RMM:   6    -0.230970390168E+04   -0.30115E-05   -0.10743E-04  3509   0.126E-02    0.174E-02
RMM:   7    -0.230970390073E+04    0.95033E-06   -0.17967E-05  2867   0.373E-03
 188 F= -.23301337E+04 E0= -.23301337E+04  d E =-.415455E-02  mag=     2.0000
       N       E                     dE             d eps       ncg     rms          rms(c)
DAV:   1    -0.230970291939E+04    0.98229E-03   -0.12793E+00  4440   0.104E+00    0.242E-01
RMM:   2    -0.230970618497E+04   -0.32656E-02   -0.36577E-02  5722   0.167E-01    0.145E-01
RMM:   3    -0.230970639706E+04   -0.21209E-03   -0.27654E-03  5392   0.500E-02    0.200E-01
RMM:   4    -0.230970611893E+04    0.27813E-03   -0.52096E-04  4892   0.146E-02    0.106E-01
RMM:   5    -0.230970603240E+04    0.86531E-04   -0.28615E-04  4248   0.129E-02    0.211E-02
RMM:   6    -0.230970603495E+04   -0.25505E-05   -0.31934E-05  2902   0.781E-03
 189 F= -.23301359E+04 E0= -.23301359E+04  d E =-.219914E-02  mag=     2.0000
       N       E                     dE             d eps       ncg     rms          rms(c)
DAV:   1    -0.230968137275E+04    0.24660E-01   -0.11492E+01  4432   0.312E+00    0.722E-01
RMM:   2    -0.230971091810E+04   -0.29545E-01   -0.33048E-01  5687   0.498E-01    0.434E-01
RMM:   3    -0.230971260764E+04   -0.16895E-02   -0.24847E-02  5524   0.146E-01    0.589E-01
RMM:   4    -0.230971021472E+04    0.23929E-02   -0.46362E-03  6055   0.432E-02    0.323E-01
RMM:   5    -0.230970937998E+04    0.83473E-03   -0.24830E-03  4602   0.361E-02    0.622E-02
RMM:   6    -0.230970940582E+04   -0.25836E-04   -0.26761E-04  4015   0.209E-02    0.276E-02
RMM:   7    -0.230970941230E+04   -0.64827E-05   -0.38253E-05  3123   0.494E-03
 190 F= -.23301395E+04 E0= -.23301395E+04  d E =-.581489E-02  mag=     2.0000
       N       E                     dE             d eps       ncg     rms          rms(c)
DAV:   1    -0.230971067263E+04   -0.12668E-02   -0.13992E+00  4480   0.111E+00    0.302E-01
RMM:   2    -0.230971415320E+04   -0.34806E-02   -0.39144E-02  5633   0.182E-01    0.193E-01
RMM:   3    -0.230971490872E+04   -0.75552E-03   -0.31581E-03  5492   0.572E-02    0.359E-01
RMM:   4    -0.230971370885E+04    0.11999E-02   -0.85103E-04  5521   0.190E-02    0.840E-02
RMM:   5    -0.230971365109E+04    0.57768E-04   -0.38719E-04  4500   0.148E-02    0.237E-02
RMM:   6    -0.230971364952E+04    0.15613E-05   -0.34842E-05  2967   0.889E-03
 191 F= -.23301436E+04 E0= -.23301436E+04  d E =-.411197E-02  mag=     2.0000
       N       E                     dE             d eps       ncg     rms          rms(c)
DAV:   1    -0.230971199265E+04    0.16584E-02   -0.14170E+00  4432   0.112E+00    0.304E-01
RMM:   2    -0.230971550117E+04   -0.35085E-02   -0.39536E-02  5628   0.183E-01    0.196E-01
RMM:   3    -0.230971625807E+04   -0.75690E-03   -0.31676E-03  5475   0.551E-02    0.362E-01
RMM:   4    -0.230971503450E+04    0.12236E-02   -0.87820E-04  5539   0.192E-02    0.851E-02
RMM:   5    -0.230971496526E+04    0.69234E-04   -0.39478E-04  4506   0.149E-02    0.226E-02
RMM:   6    -0.230971496168E+04    0.35803E-05   -0.34974E-05  2989   0.893E-03
 192 F= -.23301448E+04 E0= -.23301448E+04  d E =-.530340E-02  mag=     2.0000
       N       E                     dE             d eps       ncg     rms          rms(c)
DAV:   1    -0.230971471862E+04    0.24664E-03   -0.13673E+00  4448   0.109E+00    0.265E-01
RMM:   2    -0.230971864659E+04   -0.39280E-02   -0.40361E-02  5794   0.180E-01    0.252E-01
RMM:   3    -0.230971885761E+04   -0.21102E-03   -0.29928E-03  5513   0.485E-02    0.300E-01
RMM:   4    -0.230971801670E+04    0.84091E-03   -0.62096E-04  5200   0.173E-02    0.785E-02
RMM:   5    -0.230971797799E+04    0.38702E-04   -0.34123E-04  4456   0.143E-02    0.216E-02
RMM:   6    -0.230971797729E+04    0.70011E-06   -0.30960E-05  2932   0.836E-03
 193 F= -.23301476E+04 E0= -.23301476E+04  d E =-.280875E-02  mag=     2.0000
       N       E                     dE             d eps       ncg     rms          rms(c)
DAV:   1    -0.230970819639E+04    0.97816E-02   -0.50709E+00  4432   0.211E+00    0.508E-01
RMM:   2    -0.230972250741E+04   -0.14311E-01   -0.14815E-01  5791   0.344E-01    0.473E-01
RMM:   3    -0.230972346564E+04   -0.95823E-03   -0.11100E-02  5661   0.945E-02    0.583E-01
RMM:   4    -0.230972028364E+04    0.31820E-02   -0.23139E-03  5628   0.332E-02    0.151E-01
RMM:   5    -0.230972014354E+04    0.14010E-03   -0.12450E-03  4715   0.264E-02    0.414E-02
RMM:   6    -0.230972013934E+04    0.42023E-05   -0.10980E-04  3663   0.145E-02    0.192E-02
RMM:   7    -0.230972014033E+04   -0.98532E-06   -0.24357E-05  2952   0.410E-03
 194 F= -.23301494E+04 E0= -.23301494E+04  d E =-.459109E-02  mag=     2.0000
       N       E                     dE             d eps       ncg     rms          rms(c)
DAV:   1    -0.230972028131E+04   -0.14197E-03   -0.12555E+00  4464   0.106E+00    0.262E-01
RMM:   2    -0.230972398054E+04   -0.36992E-02   -0.37873E-02  5822   0.175E-01    0.243E-01
RMM:   3    -0.230972424461E+04   -0.26407E-03   -0.29036E-03  5511   0.511E-02    0.301E-01
RMM:   4    -0.230972339836E+04    0.84625E-03   -0.61567E-04  5210   0.170E-02    0.735E-02
RMM:   5    -0.230972336034E+04    0.38023E-04   -0.30757E-04  4393   0.137E-02    0.206E-02
RMM:   6    -0.230972336251E+04   -0.21668E-05   -0.26901E-05  2910   0.802E-03
 195 F= -.23301525E+04 E0= -.23301525E+04  d E =-.308479E-02  mag=     2.0000
       N       E                     dE             d eps       ncg     rms          rms(c)
DAV:   1    -0.230971144484E+04    0.11915E-01   -0.58612E+00  4400   0.229E+00    0.564E-01
RMM:   2    -0.230972859927E+04   -0.17154E-01   -0.17660E-01  5799   0.377E-01    0.521E-01
RMM:   3    -0.230972992469E+04   -0.13254E-02   -0.13494E-02  5637   0.104E-01    0.653E-01
RMM:   4    -0.230972593100E+04    0.39937E-02   -0.28431E-03  5620   0.366E-02    0.159E-01
RMM:   5    -0.230972575834E+04    0.17265E-03   -0.15125E-03  4727   0.285E-02    0.432E-02
RMM:   6    -0.230972575563E+04    0.27173E-05   -0.12052E-04  3831   0.154E-02    0.208E-02
RMM:   7    -0.230972575549E+04    0.14105E-06   -0.24216E-05  2950   0.408E-03
 196 F= -.23301546E+04 E0= -.23301546E+04  d E =-.519937E-02  mag=     2.0000
       N       E                     dE             d eps       ncg     rms          rms(c)
DAV:   1    -0.230972457532E+04    0.11803E-02   -0.21807E+00  4432   0.138E+00    0.332E-01
RMM:   2    -0.230973031450E+04   -0.57392E-02   -0.62092E-02  5779   0.225E-01    0.256E-01
RMM:   3    -0.230973115910E+04   -0.84460E-03   -0.46355E-03  5574   0.639E-02    0.401E-01
RMM:   4    -0.230972969292E+04    0.14662E-02   -0.11141E-03  5576   0.220E-02    0.103E-01
RMM:   5    -0.230972961772E+04    0.75198E-04   -0.53247E-04  4570   0.172E-02    0.271E-02
RMM:   6    -0.230972961944E+04   -0.17122E-05   -0.50262E-05  3110   0.102E-02
 197 F= -.23301583E+04 E0= -.23301583E+04  d E =-.373359E-02  mag=     2.0000
       N       E                     dE             d eps       ncg     rms          rms(c)
DAV:   1    -0.230971581683E+04    0.13801E-01   -0.70260E+00  4432   0.248E+00    0.594E-01
RMM:   2    -0.230973424062E+04   -0.18424E-01   -0.19958E-01  5750   0.403E-01    0.456E-01
RMM:   3    -0.230973698371E+04   -0.27431E-02   -0.15065E-02  5638   0.112E-01    0.721E-01
RMM:   4    -0.230973225193E+04    0.47318E-02   -0.35633E-03  5829   0.393E-02    0.185E-01
RMM:   5    -0.230973200680E+04    0.24513E-03   -0.17655E-03  4624   0.304E-02    0.470E-02
RMM:   6    -0.230973200664E+04    0.16413E-06   -0.15784E-04  3903   0.178E-02    0.227E-02
RMM:   7    -0.230973201045E+04   -0.38143E-05   -0.34044E-05  3103   0.462E-03
 198 F= -.23301605E+04 E0= -.23301605E+04  d E =-.591090E-02  mag=     2.0000
       N       E                     dE             d eps       ncg     rms          rms(c)
DAV:   1    -0.230972817805E+04    0.38286E-02   -0.37331E+00  4400   0.180E+00    0.449E-01
RMM:   2    -0.230973781547E+04   -0.96374E-02   -0.10982E-01  5668   0.293E-01    0.251E-01
RMM:   3    -0.230973821490E+04   -0.39943E-03   -0.75577E-03  5488   0.863E-02    0.361E-01
RMM:   4    -0.230973727141E+04    0.94348E-03   -0.15416E-03  5827   0.256E-02    0.183E-01
RMM:   5    -0.230973698978E+04    0.28164E-03   -0.91575E-04  4630   0.223E-02    0.370E-02
RMM:   6    -0.230973699568E+04   -0.59080E-05   -0.10473E-04  3480   0.133E-02    0.166E-02
RMM:   7    -0.230973699764E+04   -0.19578E-05   -0.17078E-05  2880   0.343E-03
 199 F= -.23301654E+04 E0= -.23301654E+04  d E =-.490156E-02  mag=     2.0000
       N       E                     dE             d eps       ncg     rms          rms(c)
DAV:   1    -0.230973527471E+04    0.17210E-02   -0.11674E+00  4528   0.101E+00    0.251E-01
RMM:   2    -0.230973827161E+04   -0.29969E-02   -0.34166E-02  5666   0.164E-01    0.141E-01
RMM:   3    -0.230973841273E+04   -0.14112E-03   -0.23979E-03  5381   0.492E-02    0.201E-01
RMM:   4    -0.230973812101E+04    0.29172E-03   -0.48323E-04  4889   0.144E-02    0.103E-01
RMM:   5    -0.230973802980E+04    0.91206E-04   -0.29657E-04  4321   0.132E-02    0.211E-02
RMM:   6    -0.230973803114E+04   -0.13349E-05   -0.35259E-05  2908   0.836E-03
 200 F= -.23301664E+04 E0= -.23301664E+04  d E =-.589127E-02  mag=     2.0000
       N       E                     dE             d eps       ncg     rms          rms(c)
DAV:   1    -0.230973799769E+04    0.32117E-04   -0.13890E+00  4448   0.112E+00    0.297E-01
RMM:   2    -0.230974215581E+04   -0.41581E-02   -0.47877E-02  5715   0.184E-01    0.154E-01
RMM:   3    -0.230974204704E+04    0.10878E-03   -0.36660E-03  4970   0.557E-02    0.984E-02
RMM:   4    -0.230974239226E+04   -0.34522E-03   -0.95086E-04  5195   0.219E-02    0.217E-01
RMM:   5    -0.230974196190E+04    0.43036E-03   -0.35217E-04  4903   0.142E-02    0.286E-02
RMM:   6    -0.230974196372E+04   -0.18218E-05   -0.49836E-05  2883   0.449E-03
 201 F= -.23301703E+04 E0= -.23301703E+04  d E =-.392157E-02  mag=     2.0000
