       N       E                     dE             d eps       ncg     rms          rms(c)
DAV:   1     0.127854341767E+05    0.12785E+05   -0.83121E+05  4440   0.144E+03
DAV:   2    -0.106450754392E+04   -0.13850E+05   -0.13275E+05  5336   0.330E+02
DAV:   3    -0.247383356443E+04   -0.14093E+04   -0.13963E+04  5368   0.111E+02
DAV:   4    -0.251941272167E+04   -0.45579E+02   -0.45356E+02  6672   0.297E+01
DAV:   5    -0.252027210495E+04   -0.85938E+00   -0.85795E+00  5536   0.322E+00    0.170E+02
RMM:   6    -0.148315803393E+04    0.10371E+04   -0.19228E+03  4404   0.387E+01    0.754E+01
RMM:   7    -0.164998876289E+04   -0.16683E+03   -0.34442E+02  4987   0.144E+01    0.560E+01
RMM:   8    -0.169010519062E+04   -0.40116E+02   -0.65823E+01  5292   0.779E+00    0.406E+01
RMM:   9    -0.177066252996E+04   -0.80557E+02   -0.61298E+01  4962   0.612E+00    0.378E+01
RMM:  10    -0.192526539500E+04   -0.15460E+03   -0.76818E+01  5010   0.843E+00    0.347E+01
RMM:  11    -0.197078814544E+04   -0.45523E+02   -0.24329E+01  5129   0.440E+00    0.194E+01
RMM:  12    -0.206307069139E+04   -0.92283E+02   -0.36575E+01  4526   0.485E+00    0.142E+01
RMM:  13    -0.219703273194E+04   -0.13396E+03   -0.99783E+01  4602   0.728E+00    0.141E+01
RMM:  14    -0.225568250436E+04   -0.58650E+02   -0.44870E+01  4771   0.489E+00    0.990E+00
RMM:  15    -0.228734383614E+04   -0.31661E+02   -0.24293E+01  4667   0.374E+00    0.683E+00
RMM:  16    -0.230450143617E+04   -0.17158E+02   -0.17053E+01  4569   0.288E+00    0.300E+00
RMM:  17    -0.230816702365E+04   -0.36656E+01   -0.35763E+00  4774   0.172E+00    0.162E+00
RMM:  18    -0.230910989094E+04   -0.94287E+00   -0.11552E+00  4992   0.632E-01    0.941E-01
RMM:  19    -0.230950075308E+04   -0.39086E+00   -0.24681E-01  4743   0.443E-01    0.489E-01
RMM:  20    -0.230958278621E+04   -0.82033E-01   -0.48517E-02  4858   0.193E-01    0.359E-01
RMM:  21    -0.230962918422E+04   -0.46398E-01   -0.26418E-02  4653   0.130E-01    0.196E-01
RMM:  22    -0.230964450824E+04   -0.15324E-01   -0.76244E-03  4615   0.772E-02    0.123E-01
RMM:  23    -0.230965828294E+04   -0.13775E-01   -0.46544E-03  4414   0.588E-02    0.109E-01
RMM:  24    -0.230966851868E+04   -0.10236E-01   -0.35908E-03  4397   0.503E-02    0.433E-02
RMM:  25    -0.230967402916E+04   -0.55105E-02   -0.19146E-03  4534   0.381E-02    0.268E-02
RMM:  26    -0.230967647225E+04   -0.24431E-02   -0.93094E-04  4250   0.245E-02    0.197E-02
RMM:  27    -0.230967743659E+04   -0.96434E-03   -0.35265E-04  4027   0.159E-02    0.836E-03
RMM:  28    -0.230967771044E+04   -0.27386E-03   -0.10275E-04  3723   0.946E-03    0.503E-03
RMM:  29    -0.230967784473E+04   -0.13429E-03   -0.37373E-05  3359   0.597E-03    0.327E-03
RMM:  30    -0.230967791185E+04   -0.67124E-04   -0.19017E-05  3042   0.445E-03    0.179E-03
RMM:  31    -0.230967793470E+04   -0.22852E-04   -0.83684E-06  2818   0.322E-03    0.122E-03
RMM:  32    -0.230967793908E+04   -0.43810E-05   -0.35985E-06  2431   0.230E-03
   1 F= -.23300958E+04 E0= -.23300958E+04  d E =-.233010E+04  mag=     4.0000
       N       E                     dE             d eps       ncg     rms          rms(c)
DAV:   1    -0.230966048737E+04    0.17447E-01   -0.17209E+00  5096   0.903E-01    0.438E-01
RMM:   2    -0.230966754271E+04   -0.70553E-02   -0.99418E-02  5930   0.192E-01    0.318E-01
RMM:   3    -0.230966585254E+04    0.16902E-02   -0.65776E-03  5149   0.575E-02    0.252E-01
RMM:   4    -0.230966538095E+04    0.47159E-03   -0.24948E-03  5027   0.279E-02    0.237E-01
RMM:   5    -0.230966472438E+04    0.65657E-03   -0.12509E-03  5213   0.212E-02    0.819E-02
RMM:   6    -0.230966463990E+04    0.84484E-04   -0.24074E-04  3816   0.108E-02    0.326E-02
RMM:   7    -0.230966462137E+04    0.18528E-04   -0.33095E-05  3098   0.487E-03    0.168E-02
RMM:   8    -0.230966461655E+04    0.48222E-05   -0.24390E-05  2970   0.429E-03
   2 F= -.23300821E+04 E0= -.23300821E+04  d E =0.137042E-01  mag=     4.0000
       N       E                     dE             d eps       ncg     rms          rms(c)
DAV:   1    -0.230967939006E+04   -0.14769E-01   -0.80584E-01  4728   0.606E-01    0.303E-01
RMM:   2    -0.230968288506E+04   -0.34950E-02   -0.48314E-02  6005   0.133E-01    0.222E-01
RMM:   3    -0.230968217611E+04    0.70895E-03   -0.34656E-03  5118   0.420E-02    0.188E-01
RMM:   4    -0.230968188117E+04    0.29494E-03   -0.11131E-03  4639   0.188E-02    0.148E-01
RMM:   5    -0.230968161789E+04    0.26328E-03   -0.52521E-04  4760   0.141E-02    0.544E-02
RMM:   6    -0.230968158203E+04    0.35860E-04   -0.10779E-04  3352   0.817E-03    0.224E-02
RMM:   7    -0.230968157478E+04    0.72549E-05   -0.18667E-05  2950   0.407E-03
   3 F= -.23300993E+04 E0= -.23300993E+04  d E =-.351516E-02  mag=     4.0000
       N       E                     dE             d eps       ncg     rms          rms(c)
DAV:   1    -0.230968191865E+04   -0.33662E-03   -0.10685E-01  4664   0.333E-01    0.134E-01
RMM:   2    -0.230968283473E+04   -0.91609E-03   -0.10520E-02  5933   0.704E-02    0.791E-02
RMM:   3    -0.230968287306E+04   -0.38326E-04   -0.10320E-03  4516   0.260E-02    0.861E-02
RMM:   4    -0.230968281377E+04    0.59295E-04   -0.12226E-04  3362   0.801E-03    0.323E-02
RMM:   5    -0.230968279843E+04    0.15331E-04   -0.69166E-05  3592   0.720E-03    0.147E-02
RMM:   6    -0.230968279637E+04    0.20625E-05   -0.16220E-05  2910   0.519E-03
   4 F= -.23301004E+04 E0= -.23301004E+04  d E =-.109038E-02  mag=     4.0000
       N       E                     dE             d eps       ncg     rms          rms(c)
DAV:   1    -0.230968280534E+04   -0.69090E-05   -0.45372E-03  5176   0.691E-02    0.284E-02
RMM:   2    -0.230968284610E+04   -0.40760E-04   -0.47774E-04  5516   0.156E-02    0.159E-02
RMM:   3    -0.230968284806E+04   -0.19553E-05   -0.45297E-05  2881   0.695E-03
   5 F= -.23301004E+04 E0= -.23301004E+04  d E =-.111469E-02  mag=     4.0000
       N       E                     dE             d eps       ncg     rms          rms(c)
DAV:   1    -0.230968262208E+04    0.22402E-03   -0.96930E-02  4560   0.296E-01    0.106E-01
RMM:   2    -0.230968378967E+04   -0.11676E-02   -0.12106E-02  6136   0.685E-02    0.109E-01
RMM:   3    -0.230968376861E+04    0.21054E-04   -0.10009E-03  3868   0.195E-02    0.722E-02
RMM:   4    -0.230968373709E+04    0.31519E-04   -0.11014E-04  3012   0.639E-03    0.296E-02
RMM:   5    -0.230968372612E+04    0.10977E-04   -0.32368E-05  3000   0.474E-03    0.151E-02
RMM:   6    -0.230968372492E+04    0.12011E-05   -0.10345E-05  2855   0.404E-03
   6 F= -.23301013E+04 E0= -.23301013E+04  d E =-.848169E-03  mag=     4.0000
       N       E                     dE             d eps       ncg     rms          rms(c)
DAV:   1    -0.230968124740E+04    0.24787E-02   -0.26354E-01  4528   0.488E-01    0.176E-01
RMM:   2    -0.230968436017E+04   -0.31128E-02   -0.32427E-02  6087   0.111E-01    0.182E-01
RMM:   3    -0.230968432263E+04    0.37539E-04   -0.30312E-03  4896   0.341E-02    0.118E-01
RMM:   4    -0.230968423398E+04    0.88646E-04   -0.30538E-04  3399   0.925E-03    0.463E-02
RMM:   5    -0.230968420623E+04    0.27750E-04   -0.81953E-05  3466   0.693E-03    0.245E-02
RMM:   6    -0.230968420126E+04    0.49706E-05   -0.26973E-05  2930   0.582E-03
   7 F= -.23301017E+04 E0= -.23301017E+04  d E =-.127689E-02  mag=     4.0000
       N       E                     dE             d eps       ncg     rms          rms(c)
DAV:   1    -0.230968410358E+04    0.10266E-03   -0.68219E-02  4560   0.244E-01    0.817E-02
RMM:   2    -0.230968481063E+04   -0.70705E-03   -0.69692E-03  6184   0.539E-02    0.105E-01
RMM:   3    -0.230968475048E+04    0.60145E-04   -0.58486E-04  3351   0.150E-02    0.496E-02
RMM:   4    -0.230968473761E+04    0.12875E-04   -0.64258E-05  2971   0.533E-03    0.218E-02
RMM:   5    -0.230968473347E+04    0.41403E-05   -0.17155E-05  2886   0.347E-03
   8 F= -.23301023E+04 E0= -.23301023E+04  d E =-.571717E-03  mag=     4.0000
       N       E                     dE             d eps       ncg     rms          rms(c)
DAV:   1    -0.230968153446E+04    0.32031E-02   -0.39850E-01  4496   0.590E-01    0.195E-01
RMM:   2    -0.230968566345E+04   -0.41290E-02   -0.40637E-02  6195   0.131E-01    0.251E-01
RMM:   3    -0.230968532052E+04    0.34293E-03   -0.34164E-03  4916   0.353E-02    0.119E-01
RMM:   4    -0.230968524237E+04    0.78148E-04   -0.37114E-04  3615   0.101E-02    0.536E-02
RMM:   5    -0.230968521621E+04    0.26161E-04   -0.95339E-05  3373   0.742E-03    0.374E-02
RMM:   6    -0.230968520526E+04    0.10949E-04   -0.57787E-05  3191   0.706E-03    0.153E-02
RMM:   7    -0.230968520345E+04    0.18073E-05   -0.10455E-05  2863   0.457E-03
   9 F= -.23301028E+04 E0= -.23301028E+04  d E =-.113706E-02  mag=     4.0000
       N       E                     dE             d eps       ncg     rms          rms(c)
DAV:   1    -0.230968454049E+04    0.66477E-03   -0.12976E-01  4576   0.346E-01    0.119E-01
RMM:   2    -0.230968589256E+04   -0.13521E-02   -0.13873E-02  6226   0.786E-02    0.122E-01
RMM:   3    -0.230968587407E+04    0.18490E-04   -0.13451E-03  4032   0.217E-02    0.791E-02
RMM:   4    -0.230968583579E+04    0.38283E-04   -0.12308E-04  3059   0.693E-03    0.323E-02
RMM:   5    -0.230968582558E+04    0.10208E-04   -0.38798E-05  2967   0.517E-03    0.172E-02
RMM:   6    -0.230968582363E+04    0.19552E-05   -0.14662E-05  2877   0.449E-03
  10 F= -.23301035E+04 E0= -.23301035E+04  d E =-.672817E-03  mag=     4.0000
       N       E                     dE             d eps       ncg     rms          rms(c)
DAV:   1    -0.230968566524E+04    0.16034E-03   -0.18232E-02  4592   0.129E-01    0.446E-02
RMM:   2    -0.230968584867E+04   -0.18343E-03   -0.19094E-03  6096   0.285E-02    0.412E-02
RMM:   3    -0.230968585164E+04   -0.29698E-05   -0.19096E-04  3004   0.867E-03    0.309E-02
RMM:   4    -0.230968584593E+04    0.57103E-05   -0.19186E-05  2862   0.334E-03
  11 F= -.23301036E+04 E0= -.23301036E+04  d E =-.714789E-03  mag=     4.0000
       N       E                     dE             d eps       ncg     rms          rms(c)
DAV:   1    -0.230968538795E+04    0.46369E-03   -0.84986E-02  4544   0.272E-01    0.900E-02
RMM:   2    -0.230968639554E+04   -0.10076E-02   -0.10301E-02  6235   0.622E-02    0.908E-02
RMM:   3    -0.230968640907E+04   -0.13526E-04   -0.10024E-03  3534   0.182E-02    0.633E-02
RMM:   4    -0.230968638677E+04    0.22301E-04   -0.95730E-05  2984   0.600E-03    0.257E-02
RMM:   5    -0.230968638006E+04    0.67083E-05   -0.24213E-05  2935   0.365E-03
  12 F= -.23301041E+04 E0= -.23301041E+04  d E =-.571399E-03  mag=     4.0000
       N       E                     dE             d eps       ncg     rms          rms(c)
DAV:   1    -0.230967816823E+04    0.82185E-02   -0.76561E-01  4480   0.816E-01    0.268E-01
RMM:   2    -0.230968718906E+04   -0.90208E-02   -0.92607E-02  6258   0.189E-01    0.265E-01
RMM:   3    -0.230968728104E+04   -0.91978E-04   -0.87317E-03  5561   0.511E-02    0.191E-01
RMM:   4    -0.230968706860E+04    0.21244E-03   -0.81988E-04  3923   0.140E-02    0.745E-02
RMM:   5    -0.230968701191E+04    0.56689E-04   -0.18924E-04  3729   0.866E-03    0.456E-02
RMM:   6    -0.230968699430E+04    0.17609E-04   -0.13720E-04  3815   0.917E-03    0.202E-02
RMM:   7    -0.230968699010E+04    0.42046E-05   -0.17311E-05  2888   0.525E-03
  13 F= -.23301048E+04 E0= -.23301048E+04  d E =-.128973E-02  mag=     4.0000
       N       E                     dE             d eps       ncg     rms          rms(c)
DAV:   1    -0.230968638306E+04    0.61124E-03   -0.14036E-01  4480   0.352E-01    0.113E-01
RMM:   2    -0.230968777324E+04   -0.13902E-02   -0.14615E-02  6205   0.780E-02    0.814E-02
RMM:   3    -0.230968786136E+04   -0.88121E-04   -0.14317E-03  4085   0.225E-02    0.863E-02
RMM:   4    -0.230968781874E+04    0.42615E-04   -0.14076E-04  3018   0.721E-03    0.315E-02
RMM:   5    -0.230968781101E+04    0.77362E-05   -0.36603E-05  3002   0.458E-03
  14 F= -.23301057E+04 E0= -.23301057E+04  d E =-.805490E-03  mag=     4.0000
       N       E                     dE             d eps       ncg     rms          rms(c)
DAV:   1    -0.230967633479E+04    0.11484E-01   -0.12600E+00  4448   0.105E+00    0.339E-01
RMM:   2    -0.230968881845E+04   -0.12484E-01   -0.13143E-01  6209   0.234E-01    0.232E-01
RMM:   3    -0.230968961178E+04   -0.79334E-03   -0.12762E-02  5784   0.655E-02    0.251E-01
RMM:   4    -0.230968924816E+04    0.36362E-03   -0.12398E-03  4481   0.176E-02    0.967E-02
RMM:   5    -0.230968916858E+04    0.79578E-04   -0.31712E-04  4267   0.116E-02    0.510E-02
RMM:   6    -0.230968915661E+04    0.11973E-04   -0.12492E-04  3879   0.941E-03    0.244E-02
RMM:   7    -0.230968915230E+04    0.43091E-05   -0.19731E-05  2883   0.551E-03
  15 F= -.23301069E+04 E0= -.23301069E+04  d E =-.209605E-02  mag=     4.0000
       N       E                     dE             d eps       ncg     rms          rms(c)
DAV:   1    -0.230968770657E+04    0.14500E-02   -0.15061E-01  4496   0.365E-01    0.118E-01
RMM:   2    -0.230968920475E+04   -0.14982E-02   -0.15741E-02  6221   0.813E-02    0.826E-02
RMM:   3    -0.230968929822E+04   -0.93474E-04   -0.15255E-03  4099   0.224E-02    0.877E-02
RMM:   4    -0.230968925411E+04    0.44110E-04   -0.15071E-04  3031   0.737E-03    0.329E-02
RMM:   5    -0.230968924463E+04    0.94884E-05   -0.39485E-05  3012   0.473E-03
  16 F= -.23301070E+04 E0= -.23301070E+04  d E =-.216934E-02  mag=     4.0000
       N       E                     dE             d eps       ncg     rms          rms(c)
DAV:   1    -0.230968628161E+04    0.29725E-02   -0.42011E-01  4448   0.591E-01    0.191E-01
RMM:   2    -0.230969045557E+04   -0.41740E-02   -0.44544E-02  6213   0.128E-01    0.960E-02
RMM:   3    -0.230969073209E+04   -0.27652E-03   -0.40967E-03  5150   0.345E-02    0.848E-02
RMM:   4    -0.230969073306E+04   -0.96974E-06   -0.42736E-04  3057   0.935E-03    0.598E-02
RMM:   5    -0.230969071775E+04    0.15311E-04   -0.10264E-04  3153   0.674E-03    0.379E-02
RMM:   6    -0.230969070844E+04    0.93111E-05   -0.37193E-05  2977   0.563E-03
  17 F= -.23301083E+04 E0= -.23301083E+04  d E =-.126417E-02  mag=     4.0000
       N       E                     dE             d eps       ncg     rms          rms(c)
DAV:   1    -0.230965746548E+04    0.33252E-01   -0.33017E+00  4432   0.166E+00    0.534E-01
RMM:   2    -0.230969059207E+04   -0.33127E-01   -0.35246E-01  6169   0.358E-01    0.285E-01
RMM:   3    -0.230969281822E+04   -0.22261E-02   -0.32720E-02  5839   0.916E-02    0.288E-01
RMM:   4    -0.230969262448E+04    0.19373E-03   -0.33782E-03  4707   0.244E-02    0.162E-01
RMM:   5    -0.230969247880E+04    0.14568E-03   -0.78361E-04  4704   0.164E-02    0.103E-01
RMM:   6    -0.230969243119E+04    0.47617E-04   -0.30133E-04  4408   0.126E-02    0.557E-02
RMM:   7    -0.230969241115E+04    0.20034E-04   -0.73252E-05  3166   0.738E-03    0.201E-02
RMM:   8    -0.230969240517E+04    0.59864E-05   -0.15935E-05  2905   0.409E-03
  18 F= -.23301094E+04 E0= -.23301094E+04  d E =-.240214E-02  mag=     4.0000
       N       E                     dE             d eps       ncg     rms          rms(c)
DAV:   1    -0.230969193392E+04    0.47723E-03   -0.97208E-02  4720   0.276E-01    0.891E-02
RMM:   2    -0.230969298455E+04   -0.10506E-02   -0.11126E-02  6183   0.597E-02    0.459E-02
RMM:   3    -0.230969305964E+04   -0.75099E-04   -0.10308E-03  3525   0.167E-02    0.489E-02
RMM:   4    -0.230969305498E+04    0.46685E-05   -0.10810E-04  2916   0.530E-03    0.262E-02
RMM:   5    -0.230969304998E+04    0.50004E-05   -0.20896E-05  2903   0.309E-03
  19 F= -.23301100E+04 E0= -.23301100E+04  d E =-.542057E-03  mag=     4.0000
       N       E                     dE             d eps       ncg     rms          rms(c)
DAV:   1    -0.230968454893E+04    0.85060E-02   -0.86963E-01  4448   0.826E-01    0.266E-01
RMM:   2    -0.230969399689E+04   -0.94480E-02   -0.10004E-01  6206   0.179E-01    0.138E-01
RMM:   3    -0.230969464623E+04   -0.64934E-03   -0.92270E-03  5497   0.474E-02    0.144E-01
RMM:   4    -0.230969460743E+04    0.38805E-04   -0.94231E-04  3248   0.124E-02    0.797E-02
RMM:   5    -0.230969455916E+04    0.48270E-04   -0.18923E-04  3473   0.842E-03    0.498E-02
RMM:   6    -0.230969454674E+04    0.12414E-04   -0.85856E-05  3209   0.732E-03    0.246E-02
RMM:   7    -0.230969454473E+04    0.20105E-05   -0.16630E-05  2902   0.500E-03
  20 F= -.23301111E+04 E0= -.23301111E+04  d E =-.172906E-02  mag=     4.0000
       N       E                     dE             d eps       ncg     rms          rms(c)
DAV:   1    -0.230965550782E+04    0.39039E-01   -0.34858E+00  4432   0.165E+00    0.532E-01
RMM:   2    -0.230969366378E+04   -0.38156E-01   -0.40330E-01  6217   0.361E-01    0.293E-01
RMM:   3    -0.230969630720E+04   -0.26434E-02   -0.38015E-02  5869   0.979E-02    0.323E-01
RMM:   4    -0.230969599003E+04    0.31717E-03   -0.37854E-03  4625   0.246E-02    0.158E-01
RMM:   5    -0.230969579379E+04    0.19624E-03   -0.74464E-04  4591   0.154E-02    0.101E-01
RMM:   6    -0.230969574761E+04    0.46183E-04   -0.36297E-04  4306   0.130E-02    0.520E-02
RMM:   7    -0.230969573833E+04    0.92783E-05   -0.69694E-05  3140   0.776E-03
  21 F= -.23301117E+04 E0= -.23301117E+04  d E =-.230956E-02  mag=     4.0000
       N       E                     dE             d eps       ncg     rms          rms(c)
DAV:   1    -0.230969015164E+04    0.55960E-02   -0.50790E-01  4496   0.645E-01    0.221E-01
RMM:   2    -0.230969696142E+04   -0.68098E-02   -0.72279E-02  6227   0.147E-01    0.115E-01
RMM:   3    -0.230969750540E+04   -0.54398E-03   -0.70318E-03  5342   0.391E-02    0.128E-01
RMM:   4    -0.230969746872E+04    0.36680E-04   -0.70741E-04  3089   0.104E-02    0.626E-02
RMM:   5    -0.230969743956E+04    0.29165E-04   -0.10991E-04  3178   0.654E-03    0.414E-02
RMM:   6    -0.230969743249E+04    0.70671E-05   -0.62436E-05  3087   0.622E-03
  22 F= -.23301132E+04 E0= -.23301132E+04  d E =-.142354E-02  mag=     4.0000
       N       E                     dE             d eps       ncg     rms          rms(c)
DAV:   1    -0.230963525462E+04    0.62185E-01   -0.45666E+00  4464   0.193E+00    0.660E-01
RMM:   2    -0.230969724905E+04   -0.61994E-01   -0.65601E-01  6223   0.444E-01    0.361E-01
RMM:   3    -0.230970187785E+04   -0.46288E-02   -0.63295E-02  5981   0.114E-01    0.412E-01
RMM:   4    -0.230970135420E+04    0.52365E-03   -0.62580E-03  4964   0.299E-02    0.189E-01
RMM:   5    -0.230970105485E+04    0.29936E-03   -0.10011E-03  4800   0.173E-02    0.125E-01
RMM:   6    -0.230970097566E+04    0.79187E-04   -0.56989E-04  4668   0.157E-02    0.630E-02
RMM:   7    -0.230970095988E+04    0.15775E-04   -0.95302E-05  3293   0.923E-03    0.203E-02
RMM:   8    -0.230970095596E+04    0.39281E-05   -0.22961E-05  2903   0.465E-03
  23 F= -.23301159E+04 E0= -.23301159E+04  d E =-.414073E-02  mag=     4.0000
       N       E                     dE             d eps       ncg     rms          rms(c)
DAV:   1    -0.230943252449E+04    0.26844E+00   -0.18269E+01  4448   0.387E+00    0.133E+00
RMM:   2    -0.230968671298E+04   -0.25419E+00   -0.26879E+00  6230   0.904E-01    0.759E-01
RMM:   3    -0.230970413738E+04   -0.17424E-01   -0.25399E-01  5999   0.238E-01    0.864E-01
RMM:   4    -0.230970149434E+04    0.26430E-02   -0.24525E-02  5718   0.610E-02    0.383E-01
RMM:   5    -0.230970023914E+04    0.12552E-02   -0.41523E-03  5392   0.337E-02    0.259E-01
RMM:   6    -0.230969987479E+04    0.36436E-03   -0.23575E-03  5111   0.297E-02    0.139E-01
RMM:   7    -0.230969980868E+04    0.66113E-04   -0.46864E-04  4706   0.175E-02    0.489E-02
RMM:   8    -0.230969977857E+04    0.30106E-04   -0.97034E-05  3189   0.732E-03    0.216E-02
RMM:   9    -0.230969977656E+04    0.20101E-05   -0.22494E-05  2898   0.381E-03
  24 F= -.23301131E+04 E0= -.23301131E+04  d E =-.137512E-02  mag=     4.0000
       N       E                     dE             d eps       ncg     rms          rms(c)
DAV:   1    -0.230955774493E+04    0.14203E+00   -0.10096E+01  4448   0.288E+00    0.972E-01
RMM:   2    -0.230969284745E+04   -0.13510E+00   -0.14324E+00  6200   0.643E-01    0.482E-01
RMM:   3    -0.230970320347E+04   -0.10356E-01   -0.13339E-01  5864   0.174E-01    0.510E-01
RMM:   4    -0.230970259215E+04    0.61132E-03   -0.13849E-02  5515   0.434E-02    0.297E-01
RMM:   5    -0.230970186513E+04    0.72702E-03   -0.14245E-03  4800   0.209E-02    0.159E-01
RMM:   6    -0.230970175876E+04    0.10637E-03   -0.12140E-03  5340   0.218E-02    0.824E-02
RMM:   7    -0.230970170551E+04    0.53251E-04   -0.25195E-04  4165   0.123E-02    0.260E-02
RMM:   8    -0.230970169908E+04    0.64259E-05   -0.23513E-05  2926   0.474E-03
  25 F= -.23301162E+04 E0= -.23301162E+04  d E =-.447220E-02  mag=     4.0000
       N       E                     dE             d eps       ncg     rms          rms(c)
DAV:   1    -0.230969354345E+04    0.81621E-02   -0.58278E-01  4488   0.693E-01    0.253E-01
RMM:   2    -0.230970317083E+04   -0.96274E-02   -0.10140E-01  6259   0.168E-01    0.149E-01
RMM:   3    -0.230970402270E+04   -0.85187E-03   -0.10735E-02  5534   0.469E-02    0.174E-01
RMM:   4    -0.230970391360E+04    0.10910E-03   -0.10257E-03  3245   0.123E-02    0.700E-02
RMM:   5    -0.230970386568E+04    0.47916E-04   -0.13295E-04  3228   0.698E-03    0.473E-02
RMM:   6    -0.230970384589E+04    0.19797E-04   -0.96103E-05  3348   0.734E-03    0.240E-02
RMM:   7    -0.230970384243E+04    0.34566E-05   -0.16586E-05  2877   0.516E-03
  26 F= -.23301181E+04 E0= -.23301181E+04  d E =-.187420E-02  mag=     4.0000
       N       E                     dE             d eps       ncg     rms          rms(c)
DAV:   1    -0.230961270491E+04    0.91141E-01   -0.52526E+00  4448   0.208E+00    0.763E-01
RMM:   2    -0.230970100006E+04   -0.88295E-01   -0.93344E-01  6273   0.512E-01    0.418E-01
RMM:   3    -0.230970791267E+04   -0.69126E-02   -0.92530E-02  5993   0.139E-01    0.461E-01
RMM:   4    -0.230970732639E+04    0.58628E-03   -0.88005E-03  5195   0.343E-02    0.217E-01
RMM:   5    -0.230970689456E+04    0.43183E-03   -0.12146E-03  4759   0.183E-02    0.155E-01
RMM:   6    -0.230970671077E+04    0.18379E-03   -0.90847E-04  4873   0.192E-02    0.816E-02
RMM:   7    -0.230970667061E+04    0.40166E-04   -0.16923E-04  3928   0.112E-02    0.239E-02
RMM:   8    -0.230970666477E+04    0.58406E-05   -0.38532E-05  2956   0.546E-03
  27 F= -.23301201E+04 E0= -.23301201E+04  d E =-.388992E-02  mag=     4.0000
       N       E                     dE             d eps       ncg     rms          rms(c)
DAV:   1    -0.230969570614E+04    0.10964E-01   -0.77629E-01  4456   0.777E-01    0.280E-01
RMM:   2    -0.230970763621E+04   -0.11930E-01   -0.12605E-01  6310   0.188E-01    0.152E-01
RMM:   3    -0.230970861190E+04   -0.97569E-03   -0.12834E-02  5573   0.512E-02    0.166E-01
RMM:   4    -0.230970854354E+04    0.68356E-04   -0.12167E-03  3239   0.130E-02    0.816E-02
RMM:   5    -0.230970847795E+04    0.65591E-04   -0.17150E-04  3322   0.758E-03    0.548E-02
RMM:   6    -0.230970845263E+04    0.25323E-04   -0.13415E-04  3404   0.810E-03    0.243E-02
RMM:   7    -0.230970845099E+04    0.16371E-05   -0.21359E-05  2923   0.521E-03
  28 F= -.23301216E+04 E0= -.23301216E+04  d E =-.150788E-02  mag=     4.0000
       N       E                     dE             d eps       ncg     rms          rms(c)
DAV:   1    -0.230968704578E+04    0.21407E-01   -0.13558E+00  4432   0.103E+00    0.370E-01
RMM:   2    -0.230970797218E+04   -0.20926E-01   -0.22099E-01  6287   0.250E-01    0.199E-01
RMM:   3    -0.230970964908E+04   -0.16769E-02   -0.22518E-02  5804   0.696E-02    0.213E-01
RMM:   4    -0.230970954489E+04    0.10419E-03   -0.20965E-03  3596   0.168E-02    0.109E-01
RMM:   5    -0.230970942681E+04    0.11808E-03   -0.29944E-04  3591   0.971E-03    0.743E-02
RMM:   6    -0.230970937877E+04    0.48043E-04   -0.24289E-04  3854   0.105E-02    0.332E-02
RMM:   7    -0.230970937577E+04    0.29932E-05   -0.42222E-05  3016   0.617E-03
  29 F= -.23301222E+04 E0= -.23301222E+04  d E =-.206267E-02  mag=     4.0000
       N       E                     dE             d eps       ncg     rms          rms(c)
DAV:   1    -0.230969568636E+04    0.13692E-01   -0.10967E+00  4432   0.940E-01    0.337E-01
RMM:   2    -0.230971086230E+04   -0.15176E-01   -0.16112E-01  6244   0.226E-01    0.162E-01
RMM:   3    -0.230971204884E+04   -0.11865E-02   -0.16356E-02  5640   0.617E-02    0.114E-01
RMM:   4    -0.230971204313E+04    0.57163E-05   -0.14811E-03  3710   0.147E-02    0.759E-02
RMM:   5    -0.230971201718E+04    0.25950E-04   -0.22819E-04  3975   0.991E-03    0.563E-02
RMM:   6    -0.230971200437E+04    0.12802E-04   -0.99623E-05  3165   0.753E-03    0.471E-02
RMM:   7    -0.230971199001E+04    0.14364E-04   -0.40528E-05  3024   0.519E-03    0.185E-02
RMM:   8    -0.230971198653E+04    0.34781E-05   -0.82061E-06  2852   0.354E-03
  30 F= -.23301244E+04 E0= -.23301244E+04  d E =-.220513E-02  mag=     4.0000
       N       E                     dE             d eps       ncg     rms          rms(c)
DAV:   1    -0.230968690744E+04    0.25083E-01   -0.17970E+00  4416   0.120E+00    0.431E-01
RMM:   2    -0.230971195487E+04   -0.25047E-01   -0.26568E-01  6237   0.288E-01    0.209E-01
RMM:   3    -0.230971370014E+04   -0.17453E-02   -0.24868E-02  5697   0.737E-02    0.146E-01
RMM:   4    -0.230971368653E+04    0.13613E-04   -0.23484E-03  4327   0.180E-02    0.983E-02
RMM:   5    -0.230971367997E+04    0.65591E-05   -0.40109E-04  4268   0.132E-02    0.104E-01
RMM:   6    -0.230971359818E+04    0.81786E-04   -0.16441E-04  3549   0.871E-03    0.396E-02
RMM:   7    -0.230971358938E+04    0.88013E-05   -0.45024E-05  3116   0.544E-03
  31 F= -.23301254E+04 E0= -.23301254E+04  d E =-.328298E-02  mag=     4.0000
       N       E                     dE             d eps       ncg     rms          rms(c)
DAV:   1    -0.230970904512E+04    0.45531E-02   -0.60413E-01  4544   0.670E-01    0.237E-01
RMM:   2    -0.230971578242E+04   -0.67373E-02   -0.71028E-02  6223   0.154E-01    0.142E-01
RMM:   3    -0.230971624578E+04   -0.46336E-03   -0.64336E-03  5393   0.423E-02    0.138E-01
RMM:   4    -0.230971612980E+04    0.11598E-03   -0.67035E-04  3465   0.112E-02    0.729E-02
RMM:   5    -0.230971609655E+04    0.33253E-04   -0.11618E-04  3255   0.788E-03    0.350E-02
RMM:   6    -0.230971609226E+04    0.42884E-05   -0.47057E-05  3076   0.620E-03
  32 F= -.23301276E+04 E0= -.23301276E+04  d E =-.214231E-02  mag=     4.0000
       N       E                     dE             d eps       ncg     rms          rms(c)
DAV:   1    -0.230966964641E+04    0.46450E-01   -0.42272E+00  4480   0.178E+00    0.629E-01
RMM:   2    -0.230971706551E+04   -0.47419E-01   -0.49976E-01  6215   0.408E-01    0.376E-01
RMM:   3    -0.230972027108E+04   -0.32056E-02   -0.45607E-02  5749   0.102E-01    0.366E-01
RMM:   4    -0.230971946963E+04    0.80145E-03   -0.47132E-03  5414   0.285E-02    0.196E-01
RMM:   5    -0.230971920230E+04    0.26733E-03   -0.83046E-04  4542   0.178E-02    0.971E-02
RMM:   6    -0.230971916324E+04    0.39067E-04   -0.32730E-04  4359   0.134E-02    0.263E-02
RMM:   7    -0.230971916123E+04    0.20066E-05   -0.45630E-05  3062   0.736E-03
  33 F= -.23301297E+04 E0= -.23301297E+04  d E =-.424072E-02  mag=     4.0000
       N       E                     dE             d eps       ncg     rms          rms(c)
DAV:   1    -0.230970774174E+04    0.11421E-01   -0.10355E+00  4480   0.859E-01    0.307E-01
RMM:   2    -0.230972069555E+04   -0.12954E-01   -0.13652E-01  6258   0.201E-01    0.172E-01
RMM:   3    -0.230972155971E+04   -0.86416E-03   -0.12434E-02  5516   0.533E-02    0.145E-01
RMM:   4    -0.230972147823E+04    0.81484E-04   -0.12632E-03  3628   0.139E-02    0.100E-01
RMM:   5    -0.230972140830E+04    0.69930E-04   -0.19815E-04  3357   0.911E-03    0.524E-02
RMM:   6    -0.230972139132E+04    0.16980E-04   -0.10995E-04  3571   0.770E-03    0.150E-02
RMM:   7    -0.230972139123E+04    0.84663E-07   -0.15826E-05  2886   0.493E-03
  34 F= -.23301314E+04 E0= -.23301314E+04  d E =-.174735E-02  mag=     4.0000
       N       E                     dE             d eps       ncg     rms          rms(c)
DAV:   1    -0.230969714350E+04    0.24248E-01   -0.19478E+00  4448   0.118E+00    0.420E-01
RMM:   2    -0.230972152240E+04   -0.24379E-01   -0.25707E-01  6268   0.277E-01    0.231E-01
RMM:   3    -0.230972313357E+04   -0.16112E-02   -0.23519E-02  5626   0.731E-02    0.192E-01
RMM:   4    -0.230972300580E+04    0.12777E-03   -0.23578E-03  4326   0.187E-02    0.139E-01
RMM:   5    -0.230972286485E+04    0.14095E-03   -0.37279E-04  3735   0.119E-02    0.738E-02
RMM:   6    -0.230972283022E+04    0.34633E-04   -0.20825E-04  4088   0.101E-02    0.204E-02
RMM:   7    -0.230972282993E+04    0.28248E-06   -0.27006E-05  2939   0.586E-03
  35 F= -.23301322E+04 E0= -.23301322E+04  d E =-.251836E-02  mag=     4.0000
       N       E                     dE             d eps       ncg     rms          rms(c)
DAV:   1    -0.230971669286E+04    0.61374E-02   -0.49007E-01  4544   0.603E-01    0.226E-01
RMM:   2    -0.230972424134E+04   -0.75485E-02   -0.79932E-02  6301   0.148E-01    0.119E-01
RMM:   3    -0.230972479794E+04   -0.55660E-03   -0.76063E-03  5201   0.399E-02    0.885E-02
RMM:   4    -0.230972479792E+04    0.19267E-07   -0.75951E-04  3286   0.102E-02    0.756E-02
RMM:   5    -0.230972476290E+04    0.35024E-04   -0.97850E-05  3057   0.664E-03    0.427E-02
RMM:   6    -0.230972475023E+04    0.12665E-04   -0.53572E-05  3167   0.539E-03    0.111E-02
RMM:   7    -0.230972475039E+04   -0.15757E-06   -0.77872E-06  2843   0.399E-03
  36 F= -.23301338E+04 E0= -.23301338E+04  d E =-.155540E-02  mag=     4.0000
       N       E                     dE             d eps       ncg     rms          rms(c)
DAV:   1    -0.230966343148E+04    0.61319E-01   -0.38685E+00  4448   0.169E+00    0.633E-01
RMM:   2    -0.230972345844E+04   -0.60027E-01   -0.63486E-01  6312   0.421E-01    0.339E-01
RMM:   3    -0.230972799777E+04   -0.45393E-02   -0.62746E-02  5731   0.111E-01    0.269E-01
RMM:   4    -0.230972788917E+04    0.10861E-03   -0.60265E-03  5151   0.278E-02    0.216E-01
RMM:   5    -0.230972757005E+04    0.31912E-03   -0.76766E-04  4112   0.155E-02    0.123E-01
RMM:   6    -0.230972746012E+04    0.10993E-03   -0.46176E-04  4519   0.136E-02    0.359E-02
RMM:   7    -0.230972745485E+04    0.52704E-05   -0.58829E-05  3089   0.831E-03
  37 F= -.23301354E+04 E0= -.23301354E+04  d E =-.323058E-02  mag=     4.0000
       N       E                     dE             d eps       ncg     rms          rms(c)
DAV:   1    -0.230970821243E+04    0.19248E-01   -0.11709E+00  4464   0.916E-01    0.355E-01
RMM:   2    -0.230972879991E+04   -0.20587E-01   -0.21763E-01  6353   0.235E-01    0.178E-01
RMM:   3    -0.230973033798E+04   -0.15381E-02   -0.21472E-02  5672   0.622E-02    0.121E-01
RMM:   4    -0.230973034970E+04   -0.11721E-04   -0.19919E-03  3536   0.140E-02    0.822E-02
RMM:   5    -0.230973029123E+04    0.58474E-04   -0.24166E-04  3699   0.944E-03    0.547E-02
RMM:   6    -0.230973029269E+04   -0.14617E-05   -0.10468E-04  3140   0.697E-03    0.549E-02
RMM:   7    -0.230973027240E+04    0.20290E-04   -0.38267E-05  3007   0.492E-03    0.128E-02
RMM:   8    -0.230973027212E+04    0.28053E-06   -0.85291E-06  2841   0.327E-03
  38 F= -.23301377E+04 E0= -.23301377E+04  d E =-.230788E-02  mag=     4.0000
       N       E                     dE             d eps       ncg     rms          rms(c)
DAV:   1    -0.230955218441E+04    0.17809E+00   -0.95423E+00  4416   0.262E+00    0.102E+00
RMM:   2    -0.230972401114E+04   -0.17183E+00   -0.18175E+00  6351   0.686E-01    0.521E-01
RMM:   3    -0.230973608088E+04   -0.12070E-01   -0.17879E-01  6016   0.179E-01    0.386E-01
RMM:   4    -0.230973605107E+04    0.29810E-04   -0.16006E-02  5199   0.392E-02    0.256E-01
RMM:   5    -0.230973558481E+04    0.46626E-03   -0.20292E-03  5312   0.230E-02    0.243E-01
RMM:   6    -0.230973526772E+04    0.31708E-03   -0.13999E-03  4952   0.215E-02    0.140E-01
RMM:   7    -0.230973517800E+04    0.89722E-04   -0.47498E-04  4339   0.126E-02    0.510E-02
RMM:   8    -0.230973514343E+04    0.34567E-04   -0.79553E-05  3108   0.755E-03    0.197E-02
RMM:   9    -0.230973514767E+04   -0.42400E-05   -0.17554E-05  2888   0.327E-03
  39 F= -.23301412E+04 E0= -.23301412E+04  d E =-.573432E-02  mag=     4.0000
       N       E                     dE             d eps       ncg     rms          rms(c)
DAV:   1    -0.230972915477E+04    0.59887E-02   -0.33562E-01  4592   0.491E-01    0.190E-01
RMM:   2    -0.230973505435E+04   -0.58996E-02   -0.62384E-02  6328   0.125E-01    0.953E-02
RMM:   3    -0.230973549389E+04   -0.43954E-03   -0.60675E-03  4674   0.329E-02    0.653E-02
RMM:   4    -0.230973550313E+04   -0.92438E-05   -0.56830E-04  3057   0.808E-03    0.457E-02
RMM:   5    -0.230973549565E+04    0.74805E-05   -0.73894E-05  3160   0.519E-03
  40 F= -.23301412E+04 E0= -.23301412E+04  d E =-.581230E-02  mag=     4.0000
       N       E                     dE             d eps       ncg     rms          rms(c)
DAV:   1    -0.230970103732E+04    0.34466E-01   -0.19249E+00  4448   0.118E+00    0.471E-01
RMM:   2    -0.230973612926E+04   -0.35092E-01   -0.37176E-01  6324   0.307E-01    0.238E-01
RMM:   3    -0.230973888709E+04   -0.27578E-02   -0.37587E-02  5815   0.835E-02    0.171E-01
RMM:   4    -0.230973892187E+04   -0.34785E-04   -0.34712E-03  4473   0.191E-02    0.152E-01
RMM:   5    -0.230973878466E+04    0.13721E-03   -0.40666E-04  3420   0.114E-02    0.982E-02
RMM:   6    -0.230973870391E+04    0.80745E-04   -0.26051E-04  4297   0.101E-02    0.289E-02
RMM:   7    -0.230973870438E+04   -0.46598E-06   -0.41064E-05  3014   0.697E-03
  41 F= -.23301437E+04 E0= -.23301437E+04  d E =-.244889E-02  mag=     4.0000
       N       E                     dE             d eps       ncg     rms          rms(c)
DAV:   1    -0.230969552021E+04    0.43184E-01   -0.22787E+00  4448   0.129E+00    0.513E-01
RMM:   2    -0.230973714589E+04   -0.41626E-01   -0.44135E-01  6330   0.337E-01    0.252E-01
RMM:   3    -0.230974040165E+04   -0.32558E-02   -0.44753E-02  5832   0.915E-02    0.177E-01
RMM:   4    -0.230974043166E+04   -0.30005E-04   -0.40688E-03  4591   0.204E-02    0.143E-01
RMM:   5    -0.230974036375E+04    0.67902E-04   -0.50770E-04  3656   0.126E-02    0.129E-01
RMM:   6    -0.230974021932E+04    0.14443E-03   -0.28172E-04  4342   0.105E-02    0.336E-02
RMM:   7    -0.230974022016E+04   -0.83685E-06   -0.64679E-05  3132   0.709E-03
  42 F= -.23301444E+04 E0= -.23301444E+04  d E =-.314342E-02  mag=     4.0000
       N       E                     dE             d eps       ncg     rms          rms(c)
DAV:   1    -0.230970404966E+04    0.36170E-01   -0.21908E+00  4448   0.122E+00    0.479E-01
RMM:   2    -0.230974066409E+04   -0.36614E-01   -0.38747E-01  6372   0.314E-01    0.244E-01
RMM:   3    -0.230974344822E+04   -0.27841E-02   -0.38712E-02  5785   0.847E-02    0.179E-01
RMM:   4    -0.230974345784E+04   -0.96197E-05   -0.35533E-03  4329   0.196E-02    0.155E-01
RMM:   5    -0.230974330490E+04    0.15294E-03   -0.45186E-04  3397   0.114E-02    0.988E-02
RMM:   6    -0.230974322135E+04    0.83557E-04   -0.28651E-04  4172   0.102E-02    0.292E-02
RMM:   7    -0.230974322511E+04   -0.37657E-05   -0.49828E-05  3041   0.671E-03
  43 F= -.23301465E+04 E0= -.23301465E+04  d E =-.213666E-02  mag=     4.0000
       N       E                     dE             d eps       ncg     rms          rms(c)
DAV:   1    -0.230968774115E+04    0.55480E-01   -0.31951E+00  4448   0.147E+00    0.579E-01
RMM:   2    -0.230974135933E+04   -0.53618E-01   -0.56769E-01  6369   0.381E-01    0.294E-01
RMM:   3    -0.230974542357E+04   -0.40642E-02   -0.56727E-02  5842   0.102E-01    0.217E-01
RMM:   4    -0.230974542918E+04   -0.56065E-05   -0.51441E-03  4811   0.233E-02    0.187E-01
RMM:   5    -0.230974520637E+04    0.22281E-03   -0.60978E-04  3629   0.133E-02    0.121E-01
RMM:   6    -0.230974507918E+04    0.12719E-03   -0.42072E-04  4449   0.120E-02    0.362E-02
RMM:   7    -0.230974508527E+04   -0.60870E-05   -0.78100E-05  3142   0.787E-03
  44 F= -.23301473E+04 E0= -.23301473E+04  d E =-.295511E-02  mag=     4.0000
       N       E                     dE             d eps       ncg     rms          rms(c)
DAV:   1    -0.230972932237E+04    0.15757E-01   -0.10431E+00  4480   0.846E-01    0.334E-01
RMM:   2    -0.230974660826E+04   -0.17286E-01   -0.18309E-01  6387   0.217E-01    0.181E-01
RMM:   3    -0.230974804588E+04   -0.14376E-02   -0.18462E-02  5653   0.588E-02    0.161E-01
RMM:   4    -0.230974795407E+04    0.91812E-04   -0.17244E-03  3644   0.149E-02    0.109E-01
RMM:   5    -0.230974787779E+04    0.76282E-04   -0.20095E-04  3300   0.868E-03    0.583E-02
RMM:   6    -0.230974786124E+04    0.16549E-04   -0.12593E-04  3565   0.739E-03    0.179E-02
RMM:   7    -0.230974786287E+04   -0.16348E-05   -0.16903E-05  2879   0.501E-03
  45 F= -.23301494E+04 E0= -.23301494E+04  d E =-.210086E-02  mag=     4.0000
       N       E                     dE             d eps       ncg     rms          rms(c)
DAV:   1    -0.230958447578E+04    0.16339E+00   -0.93753E+00  4448   0.254E+00    0.100E+00
RMM:   2    -0.230974260368E+04   -0.15813E+00   -0.16752E+00  6390   0.660E-01    0.538E-01
RMM:   3    -0.230975549509E+04   -0.12891E-01   -0.17212E-01  5902   0.176E-01    0.476E-01
RMM:   4    -0.230975474332E+04    0.75177E-03   -0.15310E-02  5614   0.424E-02    0.339E-01
RMM:   5    -0.230975395287E+04    0.79045E-03   -0.17444E-03  4487   0.216E-02    0.193E-01
RMM:   6    -0.230975368872E+04    0.26415E-03   -0.12900E-03  4787   0.207E-02    0.642E-02
RMM:   7    -0.230975369410E+04   -0.53832E-05   -0.20384E-04  3780   0.125E-02    0.316E-02
RMM:   8    -0.230975368607E+04    0.80324E-05   -0.55730E-05  3085   0.570E-03
  46 F= -.23301532E+04 E0= -.23301532E+04  d E =-.591145E-02  mag=     4.0000
       N       E                     dE             d eps       ncg     rms          rms(c)
DAV:   1    -0.230971508914E+04    0.38605E-01   -0.22541E+00  4448   0.124E+00    0.491E-01
RMM:   2    -0.230975239350E+04   -0.37304E-01   -0.39514E-01  6351   0.316E-01    0.267E-01
RMM:   3    -0.230975551704E+04   -0.31235E-02   -0.40322E-02  5805   0.842E-02    0.238E-01
RMM:   4    -0.230975530730E+04    0.20974E-03   -0.37222E-03  4342   0.214E-02    0.162E-01
RMM:   5    -0.230975513010E+04    0.17720E-03   -0.42595E-04  3623   0.117E-02    0.869E-02
RMM:   6    -0.230975508792E+04    0.42180E-04   -0.27416E-04  4126   0.105E-02    0.270E-02
RMM:   7    -0.230975508922E+04   -0.13032E-05   -0.35876E-05  2957   0.662E-03
  47 F= -.23301537E+04 E0= -.23301537E+04  d E =-.633962E-02  mag=     4.0000
       N       E                     dE             d eps       ncg     rms          rms(c)
DAV:   1    -0.230971704985E+04    0.38038E-01   -0.24096E+00  4448   0.126E+00    0.506E-01
RMM:   2    -0.230975633144E+04   -0.39282E-01   -0.41556E-01  6358   0.328E-01    0.262E-01
RMM:   3    -0.230975943648E+04   -0.31050E-02   -0.41501E-02  5773   0.879E-02    0.212E-01
RMM:   4    -0.230975936472E+04    0.71757E-04   -0.37678E-03  4396   0.214E-02    0.168E-01
RMM:   5    -0.230975918250E+04    0.18223E-03   -0.45286E-04  3512   0.118E-02    0.958E-02
RMM:   6    -0.230975912140E+04    0.61098E-04   -0.30856E-04  4173   0.107E-02    0.293E-02
RMM:   7    -0.230975912459E+04   -0.31942E-05   -0.45601E-05  3041   0.689E-03
  48 F= -.23301567E+04 E0= -.23301567E+04  d E =-.302118E-02  mag=     4.0000
       N       E                     dE             d eps       ncg     rms          rms(c)
DAV:   1    -0.230950740917E+04    0.25171E+00   -0.14405E+01  4448   0.309E+00    0.125E+00
RMM:   2    -0.230974834875E+04   -0.24094E+00   -0.25531E+00  6367   0.826E-01    0.653E-01
RMM:   3    -0.230976671583E+04   -0.18367E-01   -0.25608E-01  5933   0.219E-01    0.538E-01
RMM:   4    -0.230976602767E+04    0.68815E-03   -0.22238E-02  5834   0.499E-02    0.422E-01
RMM:   5    -0.230976485197E+04    0.11757E-02   -0.27410E-03  4679   0.263E-02    0.253E-01
RMM:   6    -0.230976434462E+04    0.50736E-03   -0.20550E-03  4954   0.252E-02    0.857E-02
RMM:   7    -0.230976436902E+04   -0.24401E-04   -0.41569E-04  4177   0.157E-02    0.471E-02
RMM:   8    -0.230976434611E+04    0.22902E-04   -0.10598E-04  3233   0.735E-03    0.198E-02
RMM:   9    -0.230976434671E+04   -0.59447E-06   -0.18579E-05  2927   0.365E-03
  49 F= -.23301595E+04 E0= -.23301595E+04  d E =-.578787E-02  mag=     4.0000
       N       E                     dE             d eps       ncg     rms          rms(c)
DAV:   1    -0.230968695810E+04    0.77388E-01   -0.43341E+00  4448   0.168E+00    0.697E-01
RMM:   2    -0.230976354058E+04   -0.76582E-01   -0.81159E-01  6402   0.457E-01    0.347E-01
RMM:   3    -0.230976967853E+04   -0.61380E-02   -0.82158E-02  5914   0.120E-01    0.252E-01
RMM:   4    -0.230976969462E+04   -0.16092E-04   -0.70506E-03  4943   0.267E-02    0.203E-01
RMM:   5    -0.230976956502E+04    0.12960E-03   -0.89455E-04  3910   0.153E-02    0.177E-01
RMM:   6    -0.230976932478E+04    0.24024E-03   -0.52207E-04  4485   0.130E-02    0.507E-02
RMM:   7    -0.230976933348E+04   -0.87009E-05   -0.14442E-04  3451   0.901E-03    0.287E-02
RMM:   8    -0.230976932322E+04    0.10260E-04   -0.33226E-05  2975   0.512E-03    0.113E-02
RMM:   9    -0.230976932345E+04   -0.23388E-06   -0.73573E-06  2846   0.269E-03
  50 F= -.23301631E+04 E0= -.23301631E+04  d E =-.364455E-02  mag=     4.0000
       N       E                     dE             d eps       ncg     rms          rms(c)
DAV:   1    -0.230966303609E+04    0.10629E+00   -0.57535E+00  4448   0.195E+00    0.804E-01
RMM:   2    -0.230976492199E+04   -0.10189E+00   -0.10796E+00  6407   0.528E-01    0.402E-01
RMM:   3    -0.230977305737E+04   -0.81354E-02   -0.10960E-01  5917   0.138E-01    0.296E-01
RMM:   4    -0.230977304604E+04    0.11328E-04   -0.93336E-03  5240   0.307E-02    0.241E-01
RMM:   5    -0.230977282667E+04    0.21937E-03   -0.11606E-03  4098   0.172E-02    0.197E-01
RMM:   6    -0.230977252710E+04    0.29958E-03   -0.72337E-04  4620   0.150E-02    0.592E-02
RMM:   7    -0.230977253581E+04   -0.87185E-05   -0.19875E-04  3637   0.104E-02    0.339E-02
RMM:   8    -0.230977252047E+04    0.15347E-04   -0.43916E-05  3028   0.552E-03    0.130E-02
RMM:   9    -0.230977252045E+04    0.16298E-07   -0.10075E-05  2863   0.302E-03
  51 F= -.23301648E+04 E0= -.23301648E+04  d E =-.532299E-02  mag=     4.0000
       N       E                     dE             d eps       ncg     rms          rms(c)
DAV:   1    -0.230965938506E+04    0.11314E+00   -0.63684E+00  4448   0.204E+00    0.835E-01
RMM:   2    -0.230977101432E+04   -0.11163E+00   -0.11812E+00  6407   0.554E-01    0.417E-01
RMM:   3    -0.230977931374E+04   -0.82994E-02   -0.11721E-01  6053   0.145E-01    0.347E-01
RMM:   4    -0.230977933298E+04   -0.19239E-04   -0.10172E-02  4727   0.321E-02    0.236E-01
RMM:   5    -0.230977895751E+04    0.37547E-03   -0.14093E-03  4903   0.182E-02    0.204E-01
RMM:   6    -0.230977864443E+04    0.31308E-03   -0.10158E-03  4778   0.182E-02    0.877E-02
RMM:   7    -0.230977862630E+04    0.18131E-04   -0.30449E-04  3909   0.112E-02    0.353E-02
RMM:   8    -0.230977861153E+04    0.14774E-04   -0.51108E-05  3071   0.606E-03    0.163E-02
RMM:   9    -0.230977861319E+04   -0.16610E-05   -0.11516E-05  2871   0.302E-03
  52 F= -.23301696E+04 E0= -.23301696E+04  d E =-.482404E-02  mag=     4.0000
       N       E                     dE             d eps       ncg     rms          rms(c)
DAV:   1    -0.230972005636E+04    0.58555E-01   -0.32332E+00  4480   0.145E+00    0.593E-01
RMM:   2    -0.230977649280E+04   -0.56436E-01   -0.59685E-01  6407   0.393E-01    0.294E-01
RMM:   3    -0.230978074358E+04   -0.42508E-02   -0.59046E-02  5988   0.104E-01    0.245E-01
RMM:   4    -0.230978078737E+04   -0.43786E-04   -0.51938E-03  4030   0.229E-02    0.169E-01
RMM:   5    -0.230978059375E+04    0.19362E-03   -0.68858E-04  4339   0.133E-02    0.141E-01
RMM:   6    -0.230978043665E+04    0.15710E-03   -0.50793E-04  4349   0.134E-02    0.575E-02
RMM:   7    -0.230978043260E+04    0.40533E-05   -0.12992E-04  3387   0.804E-03    0.219E-02
RMM:   8    -0.230978042947E+04    0.31297E-05   -0.24067E-05  2941   0.496E-03
  53 F= -.23301705E+04 E0= -.23301705E+04  d E =-.574689E-02  mag=     4.0000
       N       E                     dE             d eps       ncg     rms          rms(c)
DAV:   1    -0.230968273141E+04    0.97701E-01   -0.53392E+00  4448   0.186E+00    0.773E-01
RMM:   2    -0.230977810496E+04   -0.95374E-01   -0.10095E+00  6429   0.508E-01    0.380E-01
RMM:   3    -0.230978562102E+04   -0.75161E-02   -0.10190E-01  6028   0.130E-01    0.322E-01
RMM:   4    -0.230978571076E+04   -0.89735E-04   -0.88506E-03  4445   0.294E-02    0.216E-01
RMM:   5    -0.230978544876E+04    0.26199E-03   -0.11903E-03  4736   0.168E-02    0.188E-01
RMM:   6    -0.230978522802E+04    0.22075E-03   -0.81499E-04  4669   0.164E-02    0.866E-02
RMM:   7    -0.230978520991E+04    0.18103E-04   -0.22000E-04  3680   0.980E-03    0.362E-02
RMM:   8    -0.230978519461E+04    0.15307E-04   -0.45786E-05  3035   0.585E-03    0.149E-02
RMM:   9    -0.230978519650E+04   -0.18917E-05   -0.11210E-05  2870   0.280E-03
  54 F= -.23301741E+04 E0= -.23301741E+04  d E =-.361314E-02  mag=     4.0000
       N       E                     dE             d eps       ncg     rms          rms(c)
DAV:   1    -0.230966434683E+04    0.12085E+00   -0.64075E+00  4448   0.204E+00    0.847E-01
RMM:   2    -0.230977938962E+04   -0.11504E+00   -0.12172E+00  6445   0.557E-01    0.417E-01
RMM:   3    -0.230978833781E+04   -0.89482E-02   -0.12243E-01  6061   0.144E-01    0.348E-01
RMM:   4    -0.230978842681E+04   -0.88998E-04   -0.10532E-02  4623   0.322E-02    0.234E-01
RMM:   5    -0.230978813268E+04    0.29413E-03   -0.14433E-03  4894   0.183E-02    0.209E-01
RMM:   6    -0.230978785347E+04    0.27921E-03   -0.98218E-04  4788   0.180E-02    0.958E-02
RMM:   7    -0.230978782762E+04    0.25846E-04   -0.26935E-04  3811   0.105E-02    0.402E-02
RMM:   8    -0.230978780759E+04    0.20027E-04   -0.55193E-05  3067   0.617E-03    0.163E-02
RMM:   9    -0.230978780931E+04   -0.17157E-05   -0.13567E-05  2882   0.298E-03
  55 F= -.23301755E+04 E0= -.23301755E+04  d E =-.498226E-02  mag=     4.0000
       N       E                     dE             d eps       ncg     rms          rms(c)
DAV:   1    -0.230973551850E+04    0.52289E-01   -0.33396E+00  4464   0.147E+00    0.596E-01
RMM:   2    -0.230978861336E+04   -0.53095E-01   -0.56087E-01  6359   0.385E-01    0.293E-01
RMM:   3    -0.230979262309E+04   -0.40097E-02   -0.55842E-02  6014   0.101E-01    0.277E-01
RMM:   4    -0.230979262904E+04   -0.59553E-05   -0.50713E-03  4164   0.238E-02    0.173E-01
RMM:   5    -0.230979241359E+04    0.21545E-03   -0.79056E-04  4473   0.146E-02    0.133E-01
RMM:   6    -0.230979230547E+04    0.10812E-03   -0.48717E-04  4435   0.135E-02    0.598E-02
RMM:   7    -0.230979229583E+04    0.96436E-05   -0.10079E-04  3293   0.795E-03    0.233E-02
RMM:   8    -0.230979229060E+04    0.52307E-05   -0.24462E-05  2932   0.490E-03
  56 F= -.23301791E+04 E0= -.23301791E+04  d E =-.354487E-02  mag=     4.0000
       N       E                     dE             d eps       ncg     rms          rms(c)
DAV:   1    -0.230971231900E+04    0.79977E-01   -0.48431E+00  4448   0.177E+00    0.719E-01
RMM:   2    -0.230978957618E+04   -0.77257E-01   -0.81653E-01  6360   0.465E-01    0.353E-01
RMM:   3    -0.230979535152E+04   -0.57753E-02   -0.81261E-02  6033   0.119E-01    0.332E-01
RMM:   4    -0.230979535131E+04    0.20550E-06   -0.73059E-03  4543   0.284E-02    0.208E-01
RMM:   5    -0.230979504724E+04    0.30407E-03   -0.11480E-03  4787   0.171E-02    0.162E-01
RMM:   6    -0.230979488235E+04    0.16489E-03   -0.70739E-04  4700   0.159E-02    0.750E-02
RMM:   7    -0.230979486601E+04    0.16348E-04   -0.16015E-04  3585   0.934E-03    0.304E-02
RMM:   8    -0.230979485559E+04    0.10414E-04   -0.36853E-05  2994   0.553E-03    0.129E-02
RMM:   9    -0.230979485550E+04    0.93045E-07   -0.87082E-06  2873   0.276E-03
  57 F= -.23301805E+04 E0= -.23301805E+04  d E =-.499664E-02  mag=     4.0000
       N       E                     dE             d eps       ncg     rms          rms(c)
DAV:   1    -0.230975418683E+04    0.40669E-01   -0.29689E+00  4432   0.136E+00    0.536E-01
RMM:   2    -0.230979638451E+04   -0.42198E-01   -0.44547E-01  6383   0.344E-01    0.273E-01
RMM:   3    -0.230979960271E+04   -0.32182E-02   -0.45196E-02  5955   0.904E-02    0.269E-01
RMM:   4    -0.230979957140E+04    0.31302E-04   -0.41219E-03  3912   0.220E-02    0.161E-01
RMM:   5    -0.230979939833E+04    0.17307E-03   -0.70736E-04  4325   0.139E-02    0.118E-01
RMM:   6    -0.230979932371E+04    0.74621E-04   -0.39387E-04  4205   0.121E-02    0.574E-02
RMM:   7    -0.230979931211E+04    0.11599E-04   -0.79400E-05  3234   0.717E-03    0.224E-02
RMM:   8    -0.230979930641E+04    0.57007E-05   -0.19446E-05  2913   0.438E-03
  58 F= -.23301840E+04 E0= -.23301840E+04  d E =-.347415E-02  mag=     4.0000
       N       E                     dE             d eps       ncg     rms          rms(c)
DAV:   1    -0.230969790574E+04    0.10141E+00   -0.68534E+00  4416   0.206E+00    0.818E-01
RMM:   2    -0.230979621510E+04   -0.98309E-01   -0.10384E+00  6373   0.526E-01    0.422E-01
RMM:   3    -0.230980351543E+04   -0.73003E-02   -0.10477E-01  6048   0.135E-01    0.423E-01
RMM:   4    -0.230980334032E+04    0.17510E-03   -0.93662E-03  4761   0.333E-02    0.246E-01
RMM:   5    -0.230980292942E+04    0.41090E-03   -0.16287E-03  5051   0.202E-02    0.185E-01
RMM:   6    -0.230980274547E+04    0.18395E-03   -0.93370E-04  4866   0.176E-02    0.948E-02
RMM:   7    -0.230980271137E+04    0.34100E-04   -0.22403E-04  3795   0.106E-02    0.387E-02
RMM:   8    -0.230980269241E+04    0.18959E-04   -0.48824E-05  3055   0.579E-03    0.140E-02
RMM:   9    -0.230980269113E+04    0.12792E-05   -0.12831E-05  2888   0.308E-03
  59 F= -.23301859E+04 E0= -.23301859E+04  d E =-.539682E-02  mag=     4.0000
       N       E                     dE             d eps       ncg     rms          rms(c)
DAV:   1    -0.230973875421E+04    0.63938E-01   -0.42564E+00  4416   0.169E+00    0.664E-01
RMM:   2    -0.230980169112E+04   -0.62937E-01   -0.66576E-01  6357   0.428E-01    0.356E-01
RMM:   3    -0.230980664932E+04   -0.49582E-02   -0.68145E-02  6016   0.113E-01    0.374E-01
RMM:   4    -0.230980641153E+04    0.23779E-03   -0.62827E-03  4602   0.283E-02    0.199E-01
RMM:   5    -0.230980614783E+04    0.26371E-03   -0.10837E-03  4846   0.172E-02    0.145E-01
RMM:   6    -0.230980604650E+04    0.10132E-03   -0.57888E-04  4651   0.144E-02    0.809E-02
RMM:   7    -0.230980601459E+04    0.31914E-04   -0.13212E-04  3404   0.897E-03    0.307E-02
RMM:   8    -0.230980600391E+04    0.10678E-04   -0.32136E-05  2970   0.507E-03    0.111E-02
RMM:   9    -0.230980600377E+04    0.14564E-06   -0.87334E-06  2862   0.265E-03
  60 F= -.23301883E+04 E0= -.23301883E+04  d E =-.242971E-02  mag=     4.0000
       N       E                     dE             d eps       ncg     rms          rms(c)
DAV:   1    -0.230980579819E+04    0.20572E-03   -0.11210E-02  4984   0.860E-02    0.337E-02
RMM:   2    -0.230980595829E+04   -0.16010E-03   -0.16827E-03  5523   0.211E-02    0.163E-02
RMM:   3    -0.230980597046E+04   -0.12168E-04   -0.16548E-04  2936   0.622E-03    0.119E-02
RMM:   4    -0.230980597144E+04   -0.98630E-06   -0.15867E-05  2760   0.205E-03
  61 F= -.23301884E+04 E0= -.23301884E+04  d E =-.244236E-02  mag=     4.0000
       N       E                     dE             d eps       ncg     rms          rms(c)
DAV:   1    -0.230974216904E+04    0.63801E-01   -0.42781E+00  4448   0.171E+00    0.649E-01
RMM:   2    -0.230980537848E+04   -0.63209E-01   -0.66322E-01  6378   0.433E-01    0.391E-01
RMM:   3    -0.230980999449E+04   -0.46160E-02   -0.65247E-02  6060   0.115E-01    0.462E-01
RMM:   4    -0.230980912438E+04    0.87011E-03   -0.61718E-03  4933   0.304E-02    0.190E-01
RMM:   5    -0.230980874670E+04    0.37768E-03   -0.11130E-03  4865   0.174E-02    0.124E-01
RMM:   6    -0.230980862820E+04    0.11851E-03   -0.65767E-04  4661   0.157E-02    0.631E-02
RMM:   7    -0.230980861244E+04    0.15760E-04   -0.10493E-04  3303   0.934E-03    0.163E-02
RMM:   8    -0.230980861431E+04   -0.18704E-05   -0.22174E-05  2917   0.456E-03
  62 F= -.23301905E+04 E0= -.23301905E+04  d E =-.216246E-02  mag=     4.0000
       N       E                     dE             d eps       ncg     rms          rms(c)
DAV:   1    -0.230980799175E+04    0.62069E-03   -0.40473E-02  4784   0.166E-01    0.614E-02
RMM:   2    -0.230980856698E+04   -0.57523E-03   -0.59803E-03  6217   0.405E-02    0.341E-02
RMM:   3    -0.230980861031E+04   -0.43337E-04   -0.58715E-04  3137   0.117E-02    0.388E-02
RMM:   4    -0.230980860563E+04    0.46833E-05   -0.56869E-05  2887   0.406E-03
  63 F= -.23301906E+04 E0= -.23301906E+04  d E =-.220003E-02  mag=     4.0000
       N       E                     dE             d eps       ncg     rms          rms(c)
DAV:   1    -0.230976807139E+04    0.40539E-01   -0.25696E+00  4416   0.139E+00    0.517E-01
RMM:   2    -0.230980875761E+04   -0.40686E-01   -0.42812E-01  6409   0.353E-01    0.291E-01
RMM:   3    -0.230981196698E+04   -0.32094E-02   -0.42615E-02  6043   0.917E-02    0.336E-01
RMM:   4    -0.230981160409E+04    0.36289E-03   -0.39803E-03  4372   0.235E-02    0.149E-01
RMM:   5    -0.230981140562E+04    0.19847E-03   -0.58763E-04  4298   0.132E-02    0.103E-01
RMM:   6    -0.230981133762E+04    0.68005E-04   -0.37979E-04  4299   0.126E-02    0.543E-02
RMM:   7    -0.230981132645E+04    0.11167E-04   -0.68938E-05  3053   0.779E-03    0.155E-02
RMM:   8    -0.230981132616E+04    0.28647E-06   -0.16085E-05  2888   0.421E-03
  64 F= -.23301929E+04 E0= -.23301929E+04  d E =-.231490E-02  mag=     4.0000
       N       E                     dE             d eps       ncg     rms          rms(c)
DAV:   1    -0.230977163047E+04    0.39696E-01   -0.23999E+00  4416   0.134E+00    0.500E-01
RMM:   2    -0.230980969213E+04   -0.38062E-01   -0.40014E-01  6396   0.342E-01    0.289E-01
RMM:   3    -0.230981268789E+04   -0.29958E-02   -0.39753E-02  6023   0.873E-02    0.338E-01
RMM:   4    -0.230981229590E+04    0.39199E-03   -0.37761E-03  4299   0.231E-02    0.145E-01
RMM:   5    -0.230981210958E+04    0.18632E-03   -0.57511E-04  4318   0.131E-02    0.984E-02
RMM:   6    -0.230981205088E+04    0.58699E-04   -0.35697E-04  4257   0.123E-02    0.518E-02
RMM:   7    -0.230981204048E+04    0.10399E-04   -0.59614E-05  3026   0.743E-03    0.141E-02
RMM:   8    -0.230981204080E+04   -0.32200E-06   -0.14061E-05  2875   0.395E-03
  65 F= -.23301932E+04 E0= -.23301932E+04  d E =-.264123E-02  mag=     4.0000
       N       E                     dE             d eps       ncg     rms          rms(c)
DAV:   1    -0.230977442089E+04    0.37620E-01   -0.25637E+00  4416   0.142E+00    0.502E-01
RMM:   2    -0.230981227508E+04   -0.37854E-01   -0.39842E-01  6348   0.349E-01    0.262E-01
RMM:   3    -0.230981506179E+04   -0.27867E-02   -0.38417E-02  5988   0.900E-02    0.274E-01
RMM:   4    -0.230981493911E+04    0.12269E-03   -0.36121E-03  4153   0.219E-02    0.149E-01
RMM:   5    -0.230981475261E+04    0.18650E-03   -0.57542E-04  4246   0.132E-02    0.103E-01
RMM:   6    -0.230981468301E+04    0.69593E-04   -0.36025E-04  4247   0.127E-02    0.486E-02
RMM:   7    -0.230981467496E+04    0.80527E-05   -0.61682E-05  3108   0.752E-03
  66 F= -.23301951E+04 E0= -.23301951E+04  d E =-.195435E-02  mag=     4.0000
       N       E                     dE             d eps       ncg     rms          rms(c)
DAV:   1    -0.230974164627E+04    0.73037E-01   -0.47059E+00  4416   0.192E+00    0.683E-01
RMM:   2    -0.230981169328E+04   -0.70047E-01   -0.73787E-01  6349   0.476E-01    0.352E-01
RMM:   3    -0.230981672209E+04   -0.50288E-02   -0.71043E-02  6047   0.125E-01    0.358E-01
RMM:   4    -0.230981653864E+04    0.18345E-03   -0.65512E-03  4855   0.294E-02    0.205E-01
RMM:   5    -0.230981619797E+04    0.34067E-03   -0.10671E-03  4728   0.173E-02    0.145E-01
RMM:   6    -0.230981606056E+04    0.13741E-03   -0.66776E-04  4678   0.166E-02    0.685E-02
RMM:   7    -0.230981604520E+04    0.15364E-04   -0.14030E-04  3500   0.972E-03    0.250E-02
RMM:   8    -0.230981603832E+04    0.68801E-05   -0.30755E-05  2963   0.532E-03
  67 F= -.23301956E+04 E0= -.23301956E+04  d E =-.240641E-02  mag=     4.0000
       N       E                     dE             d eps       ncg     rms          rms(c)
DAV:   1    -0.230977607306E+04    0.39972E-01   -0.28624E+00  4416   0.150E+00    0.526E-01
RMM:   2    -0.230981668565E+04   -0.40613E-01   -0.42845E-01  6319   0.361E-01    0.255E-01
RMM:   3    -0.230981959388E+04   -0.29082E-02   -0.41620E-02  5823   0.944E-02    0.181E-01
RMM:   4    -0.230981959604E+04   -0.21568E-05   -0.36381E-03  4580   0.223E-02    0.120E-01
RMM:   5    -0.230981954203E+04    0.54006E-04   -0.57639E-04  4359   0.146E-02    0.913E-02
RMM:   6    -0.230981952087E+04    0.21161E-04   -0.23009E-04  3538   0.101E-02    0.751E-02
RMM:   7    -0.230981948557E+04    0.35302E-04   -0.81142E-05  3165   0.653E-03    0.258E-02
RMM:   8    -0.230981948012E+04    0.54515E-05   -0.16753E-05  2935   0.413E-03
  68 F= -.23301982E+04 E0= -.23301982E+04  d E =-.256979E-02  mag=     4.0000
       N       E                     dE             d eps       ncg     rms          rms(c)
DAV:   1    -0.230974534196E+04    0.74144E-01   -0.50276E+00  4416   0.199E+00    0.698E-01
RMM:   2    -0.230981694691E+04   -0.71605E-01   -0.75534E-01  6313   0.480E-01    0.340E-01
RMM:   3    -0.230982207589E+04   -0.51290E-02   -0.73944E-02  5856   0.125E-01    0.244E-01
RMM:   4    -0.230982206137E+04    0.14515E-04   -0.64501E-03  5099   0.295E-02    0.169E-01
RMM:   5    -0.230982210496E+04   -0.43587E-04   -0.11620E-03  4785   0.194E-02    0.195E-01
RMM:   6    -0.230982183091E+04    0.27405E-03   -0.49782E-04  4631   0.133E-02    0.669E-02
RMM:   7    -0.230982182184E+04    0.90699E-05   -0.15326E-04  3527   0.807E-03    0.331E-02
RMM:   8    -0.230982180976E+04    0.12077E-04   -0.32428E-05  3013   0.526E-03    0.107E-02
RMM:   9    -0.230982181034E+04   -0.57413E-06   -0.74813E-06  2858   0.243E-03
  69 F= -.23301994E+04 E0= -.23301994E+04  d E =-.376012E-02  mag=     4.0000
       N       E                     dE             d eps       ncg     rms          rms(c)
DAV:   1    -0.230978457306E+04    0.37237E-01   -0.26689E+00  4416   0.145E+00    0.508E-01
RMM:   2    -0.230982272993E+04   -0.38157E-01   -0.40263E-01  6236   0.345E-01    0.259E-01
RMM:   3    -0.230982546462E+04   -0.27347E-02   -0.39159E-02  5753   0.953E-02    0.204E-01
RMM:   4    -0.230982539348E+04    0.71137E-04   -0.35151E-03  4898   0.228E-02    0.169E-01
RMM:   5    -0.230982518019E+04    0.21329E-03   -0.54639E-04  3981   0.138E-02    0.911E-02
RMM:   6    -0.230982511805E+04    0.62140E-04   -0.29767E-04  4262   0.115E-02    0.271E-02
RMM:   7    -0.230982511884E+04   -0.78607E-06   -0.47736E-05  3056   0.777E-03
  70 F= -.23302020E+04 E0= -.23302020E+04  d E =-.259226E-02  mag=     4.0000
       N       E                     dE             d eps       ncg     rms          rms(c)
DAV:   1    -0.230981069225E+04    0.14426E-01   -0.97797E-01  4448   0.882E-01    0.308E-01
RMM:   2    -0.230982462764E+04   -0.13935E-01   -0.14708E-01  6252   0.208E-01    0.160E-01
RMM:   3    -0.230982565811E+04   -0.10305E-02   -0.14331E-02  5671   0.599E-02    0.133E-01
RMM:   4    -0.230982560926E+04    0.48854E-04   -0.12990E-03  3633   0.143E-02    0.101E-01
RMM:   5    -0.230982553456E+04    0.74697E-04   -0.20836E-04  3372   0.943E-03    0.519E-02
RMM:   6    -0.230982551453E+04    0.20032E-04   -0.11002E-04  3636   0.763E-03    0.156E-02
RMM:   7    -0.230982551537E+04   -0.84247E-06   -0.17682E-05  2915   0.539E-03
  71 F= -.23302019E+04 E0= -.23302019E+04  d E =-.255957E-02  mag=     4.0000
       N       E                     dE             d eps       ncg     rms          rms(c)
DAV:   1    -0.230982295205E+04    0.25625E-02   -0.17056E-01  4560   0.368E-01    0.126E-01
RMM:   2    -0.230982536007E+04   -0.24080E-02   -0.25254E-02  6198   0.853E-02    0.636E-02
RMM:   3    -0.230982550987E+04   -0.14980E-03   -0.22180E-03  3942   0.236E-02    0.427E-02
RMM:   4    -0.230982551033E+04   -0.46386E-06   -0.20740E-04  3084   0.650E-03    0.401E-02
RMM:   5    -0.230982549929E+04    0.11041E-04   -0.38007E-05  2931   0.473E-03    0.231E-02
RMM:   6    -0.230982549534E+04    0.39511E-05   -0.18389E-05  2954   0.368E-03
  72 F= -.23302021E+04 E0= -.23302021E+04  d E =-.271802E-02  mag=     4.0000
       N       E                     dE             d eps       ncg     rms          rms(c)
DAV:   1    -0.230980737348E+04    0.18126E-01   -0.11803E+00  4448   0.100E+00    0.351E-01
RMM:   2    -0.230982666298E+04   -0.19289E-01   -0.20331E-01  6293   0.239E-01    0.202E-01
RMM:   3    -0.230982823841E+04   -0.15754E-02   -0.20242E-02  5777   0.668E-02    0.189E-01
RMM:   4    -0.230982804725E+04    0.19116E-03   -0.18455E-03  3874   0.168E-02    0.110E-01
RMM:   5    -0.230982795587E+04    0.91384E-04   -0.23041E-04  3603   0.101E-02    0.558E-02
RMM:   6    -0.230982793723E+04    0.18632E-04   -0.13705E-04  3807   0.866E-03    0.179E-02
RMM:   7    -0.230982793694E+04    0.28827E-06   -0.17430E-05  2890   0.564E-03
  73 F= -.23302040E+04 E0= -.23302040E+04  d E =-.189348E-02  mag=     4.0000
       N       E                     dE             d eps       ncg     rms          rms(c)
DAV:   1    -0.230978818874E+04    0.39748E-01   -0.23582E+00  4448   0.141E+00    0.500E-01
RMM:   2    -0.230982681258E+04   -0.38624E-01   -0.40763E-01  6300   0.338E-01    0.290E-01
RMM:   3    -0.230983007545E+04   -0.32629E-02   -0.41523E-02  5896   0.953E-02    0.280E-01
RMM:   4    -0.230982963541E+04    0.44004E-03   -0.37403E-03  4825   0.238E-02    0.156E-01
RMM:   5    -0.230982944626E+04    0.18915E-03   -0.46782E-04  4077   0.133E-02    0.819E-02
RMM:   6    -0.230982941014E+04    0.36124E-04   -0.28089E-04  4178   0.117E-02    0.281E-02
RMM:   7    -0.230982940891E+04    0.12264E-05   -0.39699E-05  3009   0.735E-03
  74 F= -.23302047E+04 E0= -.23302047E+04  d E =-.259861E-02  mag=     4.0000
       N       E                     dE             d eps       ncg     rms          rms(c)
DAV:   1    -0.230980494430E+04    0.24466E-01   -0.14838E+00  4448   0.115E+00    0.403E-01
RMM:   2    -0.230983043940E+04   -0.25495E-01   -0.26956E-01  6287   0.276E-01    0.213E-01
RMM:   3    -0.230983248723E+04   -0.20478E-02   -0.26764E-02  5848   0.775E-02    0.183E-01
RMM:   4    -0.230983236885E+04    0.11838E-03   -0.24071E-03  4166   0.186E-02    0.126E-01
RMM:   5    -0.230983224247E+04    0.12637E-03   -0.28641E-04  3615   0.107E-02    0.666E-02
RMM:   6    -0.230983220579E+04    0.36686E-04   -0.19863E-04  4164   0.998E-03    0.210E-02
RMM:   7    -0.230983220735E+04   -0.15676E-05   -0.26053E-05  2941   0.645E-03
  75 F= -.23302069E+04 E0= -.23302069E+04  d E =-.219081E-02  mag=     4.0000
       N       E                     dE             d eps       ncg     rms          rms(c)
DAV:   1    -0.230975883597E+04    0.73370E-01   -0.40998E+00  4448   0.190E+00    0.671E-01
RMM:   2    -0.230982963708E+04   -0.70801E-01   -0.74893E-01  6312   0.461E-01    0.357E-01
RMM:   3    -0.230983531988E+04   -0.56828E-02   -0.75272E-02  5975   0.127E-01    0.312E-01
RMM:   4    -0.230983493738E+04    0.38250E-03   -0.66251E-03  5481   0.304E-02    0.213E-01
RMM:   5    -0.230983457173E+04    0.36565E-03   -0.77178E-04  4299   0.159E-02    0.115E-01
RMM:   6    -0.230983445087E+04    0.12087E-03   -0.59015E-04  4657   0.158E-02    0.382E-02
RMM:   7    -0.230983445080E+04    0.69354E-07   -0.77805E-05  3318   0.937E-03
  76 F= -.23302081E+04 E0= -.23302081E+04  d E =-.343590E-02  mag=     4.0000
       N       E                     dE             d eps       ncg     rms          rms(c)
DAV:   1    -0.230982299082E+04    0.11460E-01   -0.73283E-01  4448   0.830E-01    0.289E-01
RMM:   2    -0.230983589924E+04   -0.12908E-01   -0.13707E-01  6262   0.201E-01    0.150E-01
RMM:   3    -0.230983689131E+04   -0.99207E-03   -0.13388E-02  5740   0.592E-02    0.111E-01
RMM:   4    -0.230983687381E+04    0.17495E-04   -0.12045E-03  3708   0.133E-02    0.910E-02
RMM:   5    -0.230983680681E+04    0.67005E-04   -0.15582E-04  3206   0.846E-03    0.508E-02
RMM:   6    -0.230983677890E+04    0.27913E-04   -0.10469E-04  3809   0.770E-03    0.162E-02
RMM:   7    -0.230983677966E+04   -0.76697E-06   -0.16803E-05  2911   0.539E-03
  77 F= -.23302100E+04 E0= -.23302100E+04  d E =-.189458E-02  mag=     4.0000
       N       E                     dE             d eps       ncg     rms          rms(c)
DAV:   1    -0.230982442993E+04    0.12349E-01   -0.71073E-01  4448   0.818E-01    0.283E-01
RMM:   2    -0.230983696793E+04   -0.12538E-01   -0.13302E-01  6252   0.199E-01    0.145E-01
RMM:   3    -0.230983790546E+04   -0.93753E-03   -0.12842E-02  5710   0.597E-02    0.103E-01
RMM:   4    -0.230983789844E+04    0.70122E-05   -0.11481E-03  3760   0.128E-02    0.884E-02
RMM:   5    -0.230983783657E+04    0.61876E-04   -0.14820E-04  3162   0.841E-03    0.516E-02
RMM:   6    -0.230983780536E+04    0.31207E-04   -0.10118E-04  3816   0.759E-03    0.160E-02
RMM:   7    -0.230983780511E+04    0.24991E-06   -0.16429E-05  2908   0.538E-03
  78 F= -.23302106E+04 E0= -.23302106E+04  d E =-.249429E-02  mag=     4.0000
       N       E                     dE             d eps       ncg     rms          rms(c)
DAV:   1    -0.230982474322E+04    0.13062E-01   -0.89762E-01  4432   0.955E-01    0.308E-01
RMM:   2    -0.230983858820E+04   -0.13845E-01   -0.14667E-01  6265   0.217E-01    0.189E-01
RMM:   3    -0.230983969295E+04   -0.11047E-02   -0.14342E-02  5750   0.652E-02    0.179E-01
RMM:   4    -0.230983949255E+04    0.20039E-03   -0.13449E-03  4090   0.161E-02    0.945E-02
RMM:   5    -0.230983941043E+04    0.82122E-04   -0.20599E-04  3771   0.100E-02    0.464E-02
RMM:   6    -0.230983938892E+04    0.21509E-04   -0.94558E-05  3808   0.827E-03    0.151E-02
RMM:   7    -0.230983938767E+04    0.12505E-05   -0.14495E-05  2856   0.539E-03
  79 F= -.23302117E+04 E0= -.23302117E+04  d E =-.106882E-02  mag=     4.0000
       N       E                     dE             d eps       ncg     rms          rms(c)
DAV:   1    -0.230983888105E+04    0.50787E-03   -0.29528E-02  4624   0.173E-01    0.542E-02
RMM:   2    -0.230983932797E+04   -0.44692E-03   -0.47251E-03  6153   0.392E-02    0.288E-02
RMM:   3    -0.230983935924E+04   -0.31276E-04   -0.43525E-04  3202   0.122E-02    0.218E-02
RMM:   4    -0.230983935841E+04    0.83019E-06   -0.41576E-05  2890   0.366E-03
  80 F= -.23302117E+04 E0= -.23302117E+04  d E =-.113232E-02  mag=     4.0000
       N       E                     dE             d eps       ncg     rms          rms(c)
DAV:   1    -0.230983351259E+04    0.58466E-02   -0.59304E-01  4448   0.797E-01    0.236E-01
RMM:   2    -0.230984072416E+04   -0.72116E-02   -0.76094E-02  6130   0.168E-01    0.135E-01
RMM:   3    -0.230984119830E+04   -0.47414E-03   -0.67040E-03  5445   0.487E-02    0.125E-01
RMM:   4    -0.230984109675E+04    0.10154E-03   -0.64525E-04  3757   0.123E-02    0.667E-02
RMM:   5    -0.230984104790E+04    0.48851E-04   -0.11765E-04  3462   0.847E-03    0.328E-02
RMM:   6    -0.230984103567E+04    0.12234E-04   -0.63938E-05  3592   0.729E-03    0.115E-02
RMM:   7    -0.230984103529E+04    0.37515E-06   -0.10441E-05  2846   0.502E-03
  81 F= -.23302131E+04 E0= -.23302131E+04  d E =-.136181E-02  mag=     4.0000
       N       E                     dE             d eps       ncg     rms          rms(c)
DAV:   1    -0.230983460898E+04    0.64267E-02   -0.55303E-01  4432   0.769E-01    0.228E-01
RMM:   2    -0.230984133937E+04   -0.67304E-02   -0.70943E-02  6078   0.162E-01    0.135E-01
RMM:   3    -0.230984179840E+04   -0.45903E-03   -0.64301E-03  5374   0.526E-02    0.124E-01
RMM:   4    -0.230984169636E+04    0.10204E-03   -0.61935E-04  3794   0.123E-02    0.658E-02
RMM:   5    -0.230984164917E+04    0.47185E-04   -0.11717E-04  3526   0.851E-03    0.317E-02
RMM:   6    -0.230984163857E+04    0.10597E-04   -0.59991E-05  3495   0.715E-03    0.106E-02
RMM:   7    -0.230984163846E+04    0.11775E-06   -0.99869E-06  2843   0.495E-03
  82 F= -.23302134E+04 E0= -.23302134E+04  d E =-.166091E-02  mag=     4.0000
       N       E                     dE             d eps       ncg     rms          rms(c)
DAV:   1    -0.230983498447E+04    0.66541E-02   -0.77957E-01  4448   0.915E-01    0.245E-01
RMM:   2    -0.230984303003E+04   -0.80456E-02   -0.83884E-02  6045   0.182E-01    0.173E-01
RMM:   3    -0.230984353027E+04   -0.50024E-03   -0.74336E-03  5441   0.592E-02    0.162E-01
RMM:   4    -0.230984333500E+04    0.19526E-03   -0.74889E-04  4253   0.141E-02    0.686E-02
RMM:   5    -0.230984327863E+04    0.56379E-04   -0.14583E-04  3937   0.969E-03    0.313E-02
RMM:   6    -0.230984327175E+04    0.68785E-05   -0.59008E-05  3396   0.768E-03
  83 F= -.23302147E+04 E0= -.23302147E+04  d E =-.127139E-02  mag=     4.0000
       N       E                     dE             d eps       ncg     rms          rms(c)
DAV:   1    -0.230983365500E+04    0.96236E-02   -0.96297E-01  4416   0.102E+00    0.273E-01
RMM:   2    -0.230984361314E+04   -0.99581E-02   -0.10392E-01  6045   0.203E-01    0.192E-01
RMM:   3    -0.230984424612E+04   -0.63297E-03   -0.93620E-03  5573   0.643E-02    0.182E-01
RMM:   4    -0.230984400090E+04    0.24522E-03   -0.93442E-04  4562   0.155E-02    0.768E-02
RMM:   5    -0.230984392983E+04    0.71066E-04   -0.17637E-04  4076   0.104E-02    0.354E-02
RMM:   6    -0.230984391997E+04    0.98591E-05   -0.71262E-05  3592   0.826E-03
  84 F= -.23302149E+04 E0= -.23302149E+04  d E =-.151852E-02  mag=     4.0000
       N       E                     dE             d eps       ncg     rms          rms(c)
DAV:   1    -0.230983507059E+04    0.88592E-02   -0.10437E+00  4416   0.107E+00    0.274E-01
RMM:   2    -0.230984537815E+04   -0.10308E-01   -0.10755E-01  6093   0.210E-01    0.196E-01
RMM:   3    -0.230984606242E+04   -0.68427E-03   -0.10026E-02  5590   0.689E-02    0.187E-01
RMM:   4    -0.230984580948E+04    0.25294E-03   -0.99639E-04  4555   0.164E-02    0.812E-02
RMM:   5    -0.230984574079E+04    0.68699E-04   -0.20160E-04  4197   0.112E-02    0.361E-02
RMM:   6    -0.230984573364E+04    0.71491E-05   -0.69458E-05  3471   0.816E-03
  85 F= -.23302161E+04 E0= -.23302161E+04  d E =-.122455E-02  mag=     4.0000
       N       E                     dE             d eps       ncg     rms          rms(c)
DAV:   1    -0.230984427749E+04    0.14633E-02   -0.16898E-01  4544   0.429E-01    0.111E-01
RMM:   2    -0.230984593872E+04   -0.16612E-02   -0.17423E-02  6208   0.854E-02    0.733E-02
RMM:   3    -0.230984604900E+04   -0.11028E-03   -0.15830E-03  4496   0.277E-02    0.687E-02
RMM:   4    -0.230984601802E+04    0.30976E-04   -0.15844E-04  3101   0.731E-03    0.336E-02
RMM:   5    -0.230984600680E+04    0.11225E-04   -0.32606E-05  2948   0.528E-03    0.148E-02
RMM:   6    -0.230984600552E+04    0.12735E-05   -0.13048E-05  2862   0.431E-03
  86 F= -.23302162E+04 E0= -.23302162E+04  d E =-.125941E-02  mag=     4.0000
       N       E                     dE             d eps       ncg     rms          rms(c)
DAV:   1    -0.230984326550E+04    0.27413E-02   -0.42000E-01  4448   0.670E-01    0.168E-01
RMM:   2    -0.230984722561E+04   -0.39601E-02   -0.41531E-02  5993   0.129E-01    0.100E-01
RMM:   3    -0.230984748561E+04   -0.25999E-03   -0.38543E-03  5087   0.459E-02    0.882E-02
RMM:   4    -0.230984743884E+04    0.46772E-04   -0.36244E-04  3437   0.978E-03    0.535E-02
RMM:   5    -0.230984740775E+04    0.31085E-04   -0.85095E-05  3288   0.760E-03    0.239E-02
RMM:   6    -0.230984740343E+04    0.43214E-05   -0.34581E-05  2999   0.602E-03
  87 F= -.23302172E+04 E0= -.23302172E+04  d E =-.106075E-02  mag=     4.0000
       N       E                     dE             d eps       ncg     rms          rms(c)
DAV:   1    -0.230983417602E+04    0.13232E-01   -0.14549E+00  4416   0.125E+00    0.312E-01
RMM:   2    -0.230984791901E+04   -0.13743E-01   -0.14423E-01  5995   0.241E-01    0.185E-01
RMM:   3    -0.230984883210E+04   -0.91309E-03   -0.13535E-02  5428   0.791E-02    0.165E-01
RMM:   4    -0.230984866984E+04    0.16226E-03   -0.12719E-03  4768   0.176E-02    0.101E-01
RMM:   5    -0.230984856125E+04    0.10859E-03   -0.29408E-04  4225   0.124E-02    0.454E-02
RMM:   6    -0.230984854283E+04    0.18418E-04   -0.11180E-04  3936   0.933E-03    0.138E-02
RMM:   7    -0.230984854279E+04    0.46537E-07   -0.15540E-05  2888   0.540E-03
  88 F= -.23302178E+04 E0= -.23302178E+04  d E =-.157362E-02  mag=     4.0000
       N       E                     dE             d eps       ncg     rms          rms(c)
DAV:   1    -0.230984252499E+04    0.60178E-02   -0.73757E-01  4448   0.903E-01    0.226E-01
RMM:   2    -0.230984977741E+04   -0.72524E-02   -0.76270E-02  6052   0.177E-01    0.126E-01
RMM:   3    -0.230985029216E+04   -0.51475E-03   -0.72413E-03  5426   0.568E-02    0.112E-01
RMM:   4    -0.230985022885E+04    0.63311E-04   -0.67759E-04  3797   0.128E-02    0.731E-02
RMM:   5    -0.230985017784E+04    0.51009E-04   -0.12988E-04  3680   0.915E-03    0.332E-02
RMM:   6    -0.230985016973E+04    0.81129E-05   -0.60570E-05  3501   0.727E-03
  89 F= -.23302190E+04 E0= -.23302190E+04  d E =-.120713E-02  mag=     4.0000
       N       E                     dE             d eps       ncg     rms          rms(c)
DAV:   1    -0.230979606883E+04    0.54109E-01   -0.53714E+00  4448   0.244E+00    0.609E-01
RMM:   2    -0.230984901732E+04   -0.52948E-01   -0.55752E-01  6055   0.478E-01    0.333E-01
RMM:   3    -0.230985286306E+04   -0.38457E-02   -0.55101E-02  5564   0.147E-01    0.298E-01
RMM:   4    -0.230985243469E+04    0.42837E-03   -0.49719E-03  5672   0.336E-02    0.204E-01
RMM:   5    -0.230985205259E+04    0.38210E-03   -0.92079E-04  4865   0.204E-02    0.968E-02
RMM:   6    -0.230985197298E+04    0.79615E-04   -0.46548E-04  4579   0.165E-02    0.335E-02
RMM:   7    -0.230985196660E+04    0.63835E-05   -0.61559E-05  3294   0.994E-03
  90 F= -.23302196E+04 E0= -.23302196E+04  d E =-.187245E-02  mag=     4.0000
       N       E                     dE             d eps       ncg     rms          rms(c)
DAV:   1    -0.230984030954E+04    0.11663E-01   -0.12576E+00  4448   0.117E+00    0.289E-01
RMM:   2    -0.230985295697E+04   -0.12647E-01   -0.13300E-01  6095   0.232E-01    0.157E-01
RMM:   3    -0.230985386832E+04   -0.91135E-03   -0.12879E-02  5536   0.722E-02    0.130E-01
RMM:   4    -0.230985381379E+04    0.54527E-04   -0.11709E-03  4329   0.161E-02    0.992E-02
RMM:   5    -0.230985372855E+04    0.85243E-04   -0.20854E-04  3878   0.106E-02    0.473E-02
RMM:   6    -0.230985371027E+04    0.18271E-04   -0.10942E-04  4016   0.877E-03    0.153E-02
RMM:   7    -0.230985371088E+04   -0.60242E-06   -0.13827E-05  2857   0.570E-03
  91 F= -.23302209E+04 E0= -.23302209E+04  d E =-.128523E-02  mag=     4.0000
       N       E                     dE             d eps       ncg     rms          rms(c)
DAV:   1    -0.230981516597E+04    0.38544E-01   -0.37515E+00  4448   0.202E+00    0.497E-01
RMM:   2    -0.230985289736E+04   -0.37731E-01   -0.39724E-01  6111   0.401E-01    0.265E-01
RMM:   3    -0.230985556837E+04   -0.26710E-02   -0.38589E-02  5588   0.125E-01    0.211E-01
RMM:   4    -0.230985545732E+04    0.11106E-03   -0.34687E-03  5495   0.275E-02    0.175E-01
RMM:   5    -0.230985520042E+04    0.25689E-03   -0.58989E-04  4645   0.162E-02    0.859E-02
RMM:   6    -0.230985513149E+04    0.68937E-04   -0.32427E-04  4503   0.138E-02    0.278E-02
RMM:   7    -0.230985513060E+04    0.88508E-06   -0.39702E-05  3009   0.861E-03
  92 F= -.23302215E+04 E0= -.23302215E+04  d E =-.191379E-02  mag=     4.0000
       N       E                     dE             d eps       ncg     rms          rms(c)
DAV:   1    -0.230985257299E+04    0.25585E-02   -0.47709E-01  4544   0.727E-01    0.195E-01
RMM:   2    -0.230985675829E+04   -0.41853E-02   -0.44247E-02  6094   0.142E-01    0.107E-01
RMM:   3    -0.230985702802E+04   -0.26973E-03   -0.39496E-03  5392   0.420E-02    0.110E-01
RMM:   4    -0.230985694515E+04    0.82878E-04   -0.39003E-04  3627   0.110E-02    0.577E-02
RMM:   5    -0.230985691058E+04    0.34567E-04   -0.10249E-04  3768   0.837E-03    0.233E-02
RMM:   6    -0.230985690594E+04    0.46370E-05   -0.33614E-05  3017   0.635E-03
  93 F= -.23302230E+04 E0= -.23302230E+04  d E =-.147966E-02  mag=     4.0000
       N       E                     dE             d eps       ncg     rms          rms(c)
DAV:   1    -0.230985184317E+04    0.50674E-02   -0.65100E-01  4464   0.850E-01    0.226E-01
RMM:   2    -0.230985753732E+04   -0.56942E-02   -0.60283E-02  6001   0.166E-01    0.114E-01
RMM:   3    -0.230985786603E+04   -0.32870E-03   -0.52579E-03  5411   0.520E-02    0.105E-01
RMM:   4    -0.230985780634E+04    0.59691E-04   -0.51782E-04  4002   0.125E-02    0.721E-02
RMM:   5    -0.230985775376E+04    0.52579E-04   -0.13207E-04  3925   0.956E-03    0.287E-02
RMM:   6    -0.230985774512E+04    0.86327E-05   -0.48461E-05  3366   0.687E-03
  94 F= -.23302235E+04 E0= -.23302235E+04  d E =-.197351E-02  mag=     4.0000
       N       E                     dE             d eps       ncg     rms          rms(c)
DAV:   1    -0.230985431006E+04    0.34437E-02   -0.61697E-01  4448   0.812E-01    0.204E-01
RMM:   2    -0.230985929037E+04   -0.49803E-02   -0.52510E-02  6083   0.155E-01    0.102E-01
RMM:   3    -0.230985954548E+04   -0.25511E-03   -0.43124E-03  5401   0.492E-02    0.872E-02
RMM:   4    -0.230985951452E+04    0.30963E-04   -0.42700E-04  3735   0.113E-02    0.672E-02
RMM:   5    -0.230985947073E+04    0.43784E-04   -0.11583E-04  3662   0.906E-03    0.286E-02
RMM:   6    -0.230985946464E+04    0.60897E-05   -0.41136E-05  3141   0.662E-03
  95 F= -.23302248E+04 E0= -.23302248E+04  d E =-.133140E-02  mag=     4.0000
       N       E                     dE             d eps       ncg     rms          rms(c)
DAV:   1    -0.230985588945E+04    0.35813E-02   -0.49973E-01  4464   0.730E-01    0.184E-01
RMM:   2    -0.230985992481E+04   -0.40354E-02   -0.42567E-02  6059   0.140E-01    0.911E-02
RMM:   3    -0.230986012948E+04   -0.20468E-03   -0.34937E-03  5296   0.449E-02    0.754E-02
RMM:   4    -0.230986010926E+04    0.20222E-04   -0.34749E-04  3592   0.103E-02    0.617E-02
RMM:   5    -0.230986007214E+04    0.37123E-04   -0.92812E-05  3427   0.827E-03    0.261E-02
RMM:   6    -0.230986006642E+04    0.57182E-05   -0.34419E-05  3075   0.628E-03
  96 F= -.23302251E+04 E0= -.23302251E+04  d E =-.158370E-02  mag=     4.0000
       N       E                     dE             d eps       ncg     rms          rms(c)
DAV:   1    -0.230985691238E+04    0.31598E-02   -0.50922E-01  4448   0.737E-01    0.185E-01
RMM:   2    -0.230986117923E+04   -0.42669E-02   -0.45304E-02  6148   0.145E-01    0.102E-01
RMM:   3    -0.230986139024E+04   -0.21100E-03   -0.37187E-03  5433   0.416E-02    0.908E-02
RMM:   4    -0.230986134830E+04    0.41937E-04   -0.37929E-04  3484   0.108E-02    0.647E-02
RMM:   5    -0.230986130800E+04    0.40302E-04   -0.97350E-05  3593   0.825E-03    0.286E-02
RMM:   6    -0.230986130001E+04    0.79921E-05   -0.47327E-05  3238   0.673E-03
  97 F= -.23302259E+04 E0= -.23302259E+04  d E =-.820470E-03  mag=     4.0000
[...]
       N       E                     dE             d eps       ncg     rms          rms(c)
DAV:   1    -0.230998441642E+04    0.22930E-01   -0.12317E+00  4416   0.950E-01    0.378E-01
RMM:   2    -0.231000785892E+04   -0.23443E-01   -0.23754E-01  6319   0.237E-01    0.310E-01
RMM:   3    -0.231000951995E+04   -0.16610E-02   -0.23425E-02  5812   0.751E-02    0.271E-01
RMM:   4    -0.231000904959E+04    0.47036E-03   -0.20857E-03  4057   0.181E-02    0.915E-02
RMM:   5    -0.231000897992E+04    0.69662E-04   -0.20236E-04  3512   0.831E-03    0.596E-02
RMM:   6    -0.231000894250E+04    0.37424E-04   -0.17044E-04  3629   0.847E-03    0.223E-02
RMM:   7    -0.231000893951E+04    0.29892E-05   -0.20596E-05  2909   0.544E-03
 176 F= -.23303245E+04 E0= -.23303245E+04  d E =-.219203E-02  mag=     4.0000
       N       E                     dE             d eps       ncg     rms          rms(c)
DAV:   1    -0.231000261414E+04    0.63284E-02   -0.43269E-01  4480   0.578E-01    0.230E-01
RMM:   2    -0.231001061677E+04   -0.80026E-02   -0.81286E-02  6274   0.143E-01    0.168E-01
RMM:   3    -0.231001117800E+04   -0.56123E-03   -0.75299E-03  5409   0.450E-02    0.157E-01
RMM:   4    -0.231001101765E+04    0.16035E-03   -0.68607E-04  3415   0.113E-02    0.523E-02
RMM:   5    -0.231001099104E+04    0.26601E-04   -0.70510E-05  3135   0.604E-03    0.320E-02
RMM:   6    -0.231001097998E+04    0.11065E-04   -0.60581E-05  3087   0.603E-03    0.121E-02
RMM:   7    -0.231001097938E+04    0.60405E-06   -0.90580E-06  2862   0.442E-03
 177 F= -.23303261E+04 E0= -.23303261E+04  d E =-.158881E-02  mag=     4.0000
       N       E                     dE             d eps       ncg     rms          rms(c)
DAV:   1    -0.230996146620E+04    0.49514E-01   -0.27249E+00  4448   0.145E+00    0.573E-01
RMM:   2    -0.231001105093E+04   -0.49585E-01   -0.50452E-01  6236   0.358E-01    0.410E-01
RMM:   3    -0.231001499258E+04   -0.39417E-02   -0.50250E-02  5906   0.117E-01    0.401E-01
RMM:   4    -0.231001391156E+04    0.10810E-02   -0.43115E-03  5308   0.275E-02    0.135E-01
RMM:   5    -0.231001374688E+04    0.16468E-03   -0.51555E-04  4586   0.128E-02    0.811E-02
RMM:   6    -0.231001367431E+04    0.72572E-04   -0.34253E-04  4318   0.117E-02    0.336E-02
RMM:   7    -0.231001366473E+04    0.95738E-05   -0.43665E-05  3012   0.743E-03
 178 F= -.23303276E+04 E0= -.23303276E+04  d E =-.315087E-02  mag=     4.0000
       N       E                     dE             d eps       ncg     rms          rms(c)
DAV:   1    -0.231000627323E+04    0.74011E-02   -0.50451E-01  4464   0.615E-01    0.240E-01
RMM:   2    -0.231001519329E+04   -0.89201E-02   -0.90712E-02  6243   0.152E-01    0.161E-01
RMM:   3    -0.231001585882E+04   -0.66553E-03   -0.84545E-03  5443   0.471E-02    0.153E-01
RMM:   4    -0.231001571939E+04    0.13943E-03   -0.76508E-04  3427   0.114E-02    0.557E-02
RMM:   5    -0.231001568974E+04    0.29655E-04   -0.78150E-05  3145   0.614E-03    0.322E-02
RMM:   6    -0.231001568124E+04    0.84974E-05   -0.59323E-05  3075   0.590E-03
 179 F= -.23303292E+04 E0= -.23303292E+04  d E =-.150860E-02  mag=     4.0000
       N       E                     dE             d eps       ncg     rms          rms(c)
DAV:   1    -0.230994526341E+04    0.70426E-01   -0.39487E+00  4416   0.172E+00    0.667E-01
RMM:   2    -0.231001395120E+04   -0.68688E-01   -0.69998E-01  6208   0.422E-01    0.435E-01
RMM:   3    -0.231002001760E+04   -0.60664E-02   -0.74899E-02  5868   0.144E-01    0.422E-01
RMM:   4    -0.231001895818E+04    0.10594E-02   -0.60915E-03  5409   0.310E-02    0.162E-01
RMM:   5    -0.231001871819E+04    0.23999E-03   -0.66081E-04  4653   0.144E-02    0.920E-02
RMM:   6    -0.231001863759E+04    0.80595E-04   -0.41822E-04  4376   0.125E-02    0.400E-02
RMM:   7    -0.231001862579E+04    0.11808E-04   -0.62682E-05  3105   0.787E-03    0.154E-02
RMM:   8    -0.231001862468E+04    0.11086E-05   -0.11615E-05  2866   0.389E-03
 180 F= -.23303307E+04 E0= -.23303307E+04  d E =-.304214E-02  mag=     4.0000
       N       E                     dE             d eps       ncg     rms          rms(c)
DAV:   1    -0.231001484625E+04    0.37795E-02   -0.27952E-01  4544   0.457E-01    0.178E-01
RMM:   2    -0.231001980684E+04   -0.49606E-02   -0.50296E-02  6329   0.113E-01    0.131E-01
RMM:   3    -0.231002014698E+04   -0.34014E-03   -0.45963E-03  4794   0.346E-02    0.119E-01
RMM:   4    -0.231002005965E+04    0.87331E-04   -0.43004E-04  3167   0.911E-03    0.409E-02
RMM:   5    -0.231002004421E+04    0.15440E-04   -0.42889E-05  2989   0.454E-03    0.255E-02
RMM:   6    -0.231002003723E+04    0.69721E-05   -0.34336E-05  2953   0.449E-03
 181 F= -.23303317E+04 E0= -.23303317E+04  d E =-.103109E-02  mag=     4.0000
       N       E                     dE             d eps       ncg     rms          rms(c)
DAV:   1    -0.230997531271E+04    0.44731E-01   -0.25096E+00  4416   0.137E+00    0.529E-01
RMM:   2    -0.231001983105E+04   -0.44518E-01   -0.45265E-01  6284   0.337E-01    0.367E-01
RMM:   3    -0.231002323029E+04   -0.33992E-02   -0.43639E-02  5904   0.106E-01    0.355E-01
RMM:   4    -0.231002243769E+04    0.79260E-03   -0.38260E-03  4837   0.247E-02    0.127E-01
RMM:   5    -0.231002229936E+04    0.13833E-03   -0.39085E-04  4121   0.108E-02    0.771E-02
RMM:   6    -0.231002223614E+04    0.63227E-04   -0.29486E-04  4184   0.107E-02    0.320E-02
RMM:   7    -0.231002222803E+04    0.81022E-05   -0.35286E-05  2955   0.663E-03
 182 F= -.23303328E+04 E0= -.23303328E+04  d E =-.208527E-02  mag=     4.0000
       N       E                     dE             d eps       ncg     rms          rms(c)
DAV:   1    -0.231001448590E+04    0.77502E-02   -0.50830E-01  4416   0.616E-01    0.240E-01
RMM:   2    -0.231002356639E+04   -0.90805E-02   -0.91979E-02  6258   0.152E-01    0.168E-01
RMM:   3    -0.231002419652E+04   -0.63013E-03   -0.83033E-03  5419   0.479E-02    0.157E-01
RMM:   4    -0.231002404837E+04    0.14815E-03   -0.76018E-04  3387   0.114E-02    0.538E-02
RMM:   5    -0.231002402212E+04    0.26249E-04   -0.69966E-05  3078   0.573E-03    0.333E-02
RMM:   6    -0.231002401128E+04    0.10840E-04   -0.60303E-05  3062   0.581E-03    0.126E-02
RMM:   7    -0.231002401105E+04    0.23440E-06   -0.87410E-06  2848   0.411E-03
 183 F= -.23303341E+04 E0= -.23303341E+04  d E =-.132146E-02  mag=     4.0000
       N       E                     dE             d eps       ncg     rms          rms(c)
DAV:   1    -0.230994227701E+04    0.81734E-01   -0.45811E+00  4416   0.185E+00    0.715E-01
RMM:   2    -0.231002266328E+04   -0.80386E-01   -0.81569E-01  6250   0.455E-01    0.497E-01
RMM:   3    -0.231002948430E+04   -0.68210E-02   -0.85782E-02  5882   0.160E-01    0.476E-01
RMM:   4    -0.231002807084E+04    0.14135E-02   -0.69315E-03  5507   0.338E-02    0.166E-01
RMM:   5    -0.231002783342E+04    0.23742E-03   -0.74181E-04  4630   0.143E-02    0.100E-01
RMM:   6    -0.231002773011E+04    0.10331E-03   -0.49968E-04  4481   0.132E-02    0.423E-02
RMM:   7    -0.231002771741E+04    0.12695E-04   -0.65518E-05  3073   0.817E-03    0.144E-02
RMM:   8    -0.231002771653E+04    0.88740E-06   -0.11528E-05  2858   0.386E-03
 184 F= -.23303364E+04 E0= -.23303364E+04  d E =-.365779E-02  mag=     4.0000
       N       E                     dE             d eps       ncg     rms          rms(c)
DAV:   1    -0.231001058095E+04    0.17136E-01   -0.96406E-01  4416   0.850E-01    0.329E-01
RMM:   2    -0.231002773568E+04   -0.17155E-01   -0.17385E-01  6259   0.210E-01    0.230E-01
RMM:   3    -0.231002894822E+04   -0.12125E-02   -0.15880E-02  5681   0.654E-02    0.213E-01
RMM:   4    -0.231002867328E+04    0.27494E-03   -0.14522E-03  3770   0.154E-02    0.748E-02
RMM:   5    -0.231002862021E+04    0.53070E-04   -0.14212E-04  3326   0.739E-03    0.460E-02
RMM:   6    -0.231002859770E+04    0.22505E-04   -0.11491E-04  3432   0.754E-03    0.176E-02
RMM:   7    -0.231002859642E+04    0.12848E-05   -0.14757E-05  2883   0.503E-03
 185 F= -.23303367E+04 E0= -.23303367E+04  d E =-.391740E-02  mag=     4.0000
       N       E                     dE             d eps       ncg     rms          rms(c)
DAV:   1    -0.231000879159E+04    0.19806E-01   -0.13170E+00  4448   0.993E-01    0.380E-01
RMM:   2    -0.231003067887E+04   -0.21887E-01   -0.22146E-01  6237   0.241E-01    0.279E-01
RMM:   3    -0.231003233433E+04   -0.16555E-02   -0.22420E-02  5679   0.822E-02    0.255E-01
RMM:   4    -0.231003192236E+04    0.41197E-03   -0.19012E-03  4270   0.182E-02    0.866E-02
RMM:   5    -0.231003184382E+04    0.78537E-04   -0.21987E-04  3707   0.900E-03    0.539E-02
RMM:   6    -0.231003180937E+04    0.34454E-04   -0.16057E-04  3793   0.901E-03    0.197E-02
RMM:   7    -0.231003180827E+04    0.10959E-05   -0.19850E-05  2919   0.541E-03
 186 F= -.23303392E+04 E0= -.23303392E+04  d E =-.254610E-02  mag=     4.0000
       N       E                     dE             d eps       ncg     rms          rms(c)
DAV:   1    -0.231001401762E+04    0.17792E-01   -0.10891E+00  4448   0.903E-01    0.347E-01
RMM:   2    -0.231003216286E+04   -0.18145E-01   -0.18352E-01  6224   0.219E-01    0.256E-01
RMM:   3    -0.231003350260E+04   -0.13397E-02   -0.18395E-02  5664   0.741E-02    0.233E-01
RMM:   4    -0.231003315868E+04    0.34392E-03   -0.15609E-03  4004   0.165E-02    0.785E-02
RMM:   5    -0.231003309228E+04    0.66402E-04   -0.18271E-04  3544   0.837E-03    0.490E-02
RMM:   6    -0.231003306325E+04    0.29031E-04   -0.13679E-04  3628   0.850E-03    0.178E-02
RMM:   7    -0.231003306225E+04    0.99806E-06   -0.17361E-05  2910   0.523E-03
 187 F= -.23303399E+04 E0= -.23303399E+04  d E =-.320086E-02  mag=     4.0000
       N       E                     dE             d eps       ncg     rms          rms(c)
DAV:   1    -0.231001560485E+04    0.17458E-01   -0.11642E+00  4416   0.939E-01    0.356E-01
RMM:   2    -0.231003490389E+04   -0.19299E-01   -0.19460E-01  6258   0.228E-01    0.291E-01
RMM:   3    -0.231003618327E+04   -0.12794E-02   -0.19582E-02  5759   0.753E-02    0.251E-01
RMM:   4    -0.231003577632E+04    0.40696E-03   -0.17043E-03  4075   0.176E-02    0.828E-02
RMM:   5    -0.231003570705E+04    0.69264E-04   -0.19924E-04  3612   0.843E-03    0.555E-02
RMM:   6    -0.231003566719E+04    0.39862E-04   -0.16543E-04  3953   0.891E-03    0.183E-02
RMM:   7    -0.231003566563E+04    0.15635E-05   -0.16712E-05  2874   0.541E-03
 188 F= -.23303418E+04 E0= -.23303418E+04  d E =-.193020E-02  mag=     4.0000
       N       E                     dE             d eps       ncg     rms          rms(c)
DAV:   1    -0.231002882306E+04    0.68441E-02   -0.44283E-01  4480   0.577E-01    0.219E-01
RMM:   2    -0.231003613362E+04   -0.73106E-02   -0.73585E-02  6275   0.140E-01    0.184E-01
RMM:   3    -0.231003653530E+04   -0.40168E-03   -0.66493E-03  5328   0.435E-02    0.154E-01
RMM:   4    -0.231003638596E+04    0.14934E-03   -0.63725E-04  3316   0.111E-02    0.506E-02
RMM:   5    -0.231003635889E+04    0.27074E-04   -0.73558E-05  3103   0.575E-03    0.340E-02
RMM:   6    -0.231003634286E+04    0.16027E-04   -0.62233E-05  3113   0.606E-03    0.114E-02
RMM:   7    -0.231003634234E+04    0.52023E-06   -0.86579E-06  2849   0.435E-03
 189 F= -.23303421E+04 E0= -.23303421E+04  d E =-.219570E-02  mag=     4.0000
       N       E                     dE             d eps       ncg     rms          rms(c)
DAV:   1    -0.231003284296E+04    0.34999E-02   -0.32418E-01  4448   0.512E-01    0.188E-01
RMM:   2    -0.231003778332E+04   -0.49404E-02   -0.50015E-02  6189   0.120E-01    0.141E-01
RMM:   3    -0.231003812012E+04   -0.33680E-03   -0.49347E-03  5060   0.407E-02    0.129E-01
RMM:   4    -0.231003801116E+04    0.10895E-03   -0.44158E-04  3244   0.986E-03    0.429E-02
RMM:   5    -0.231003799003E+04    0.21132E-04   -0.57664E-05  3057   0.559E-03    0.272E-02
RMM:   6    -0.231003797959E+04    0.10436E-04   -0.47903E-05  3052   0.576E-03    0.938E-03
RMM:   7    -0.231003797917E+04    0.42495E-06   -0.75234E-06  2843   0.431E-03
 190 F= -.23303434E+04 E0= -.23303434E+04  d E =-.127298E-02  mag=     4.0000
       N       E                     dE             d eps       ncg     rms          rms(c)
DAV:   1    -0.231002133055E+04    0.16649E-01   -0.11493E+00  4416   0.965E-01    0.354E-01
RMM:   2    -0.231003885929E+04   -0.17529E-01   -0.17765E-01  6177   0.225E-01    0.261E-01
RMM:   3    -0.231004009424E+04   -0.12350E-02   -0.17672E-02  5717   0.760E-02    0.243E-01
RMM:   4    -0.231003970065E+04    0.39359E-03   -0.15738E-03  4424   0.177E-02    0.819E-02
RMM:   5    -0.231003962369E+04    0.76960E-04   -0.20596E-04  3861   0.916E-03    0.514E-02
RMM:   6    -0.231003958461E+04    0.39083E-04   -0.16141E-04  4125   0.925E-03    0.178E-02
RMM:   7    -0.231003958150E+04    0.31113E-05   -0.17213E-05  2878   0.566E-03
 191 F= -.23303443E+04 E0= -.23303443E+04  d E =-.219449E-02  mag=     4.0000
       N       E                     dE             d eps       ncg     rms          rms(c)
DAV:   1    -0.231003253473E+04    0.70499E-02   -0.56597E-01  4432   0.675E-01    0.240E-01
RMM:   2    -0.231004066314E+04   -0.81284E-02   -0.83276E-02  6216   0.157E-01    0.151E-01
RMM:   3    -0.231004123428E+04   -0.57115E-03   -0.79409E-03  5377   0.488E-02    0.137E-01
RMM:   4    -0.231004112945E+04    0.10483E-03   -0.70042E-04  3513   0.114E-02    0.620E-02
RMM:   5    -0.231004108069E+04    0.48768E-04   -0.11076E-04  3272   0.753E-03    0.326E-02
RMM:   6    -0.231004106953E+04    0.11158E-04   -0.66132E-05  3153   0.688E-03    0.127E-02
RMM:   7    -0.231004106911E+04    0.42084E-06   -0.10797E-05  2866   0.461E-03
 192 F= -.23303454E+04 E0= -.23303454E+04  d E =-.107248E-02  mag=     4.0000
       N       E                     dE             d eps       ncg     rms          rms(c)
DAV:   1    -0.231004102099E+04    0.48538E-04   -0.55609E-03  5064   0.667E-02    0.252E-02
RMM:   2    -0.231004110175E+04   -0.80764E-04   -0.81272E-04  4976   0.159E-02    0.229E-02
RMM:   3    -0.231004110788E+04   -0.61276E-05   -0.98685E-05  2919   0.699E-03
 193 F= -.23303454E+04 E0= -.23303454E+04  d E =-.107017E-02  mag=     4.0000
       N       E                     dE             d eps       ncg     rms          rms(c)
DAV:   1    -0.231003541140E+04    0.56904E-02   -0.49059E-01  4432   0.646E-01    0.224E-01
RMM:   2    -0.231004240640E+04   -0.69950E-02   -0.71518E-02  6107   0.148E-01    0.133E-01
RMM:   3    -0.231004285103E+04   -0.44463E-03   -0.62240E-03  5385   0.472E-02    0.123E-01
RMM:   4    -0.231004277264E+04    0.78391E-04   -0.58757E-04  3352   0.108E-02    0.575E-02
RMM:   5    -0.231004273730E+04    0.35346E-04   -0.81461E-05  3150   0.690E-03    0.319E-02
RMM:   6    -0.231004272628E+04    0.11020E-04   -0.66907E-05  3290   0.686E-03    0.105E-02
RMM:   7    -0.231004272596E+04    0.31348E-06   -0.91619E-06  2849   0.467E-03
 194 F= -.23303466E+04 E0= -.23303466E+04  d E =-.122054E-02  mag=     4.0000
       N       E                     dE             d eps       ncg     rms          rms(c)
DAV:   1    -0.231003056410E+04    0.12162E-01   -0.88202E-01  4416   0.867E-01    0.301E-01
RMM:   2    -0.231004302166E+04   -0.12458E-01   -0.12743E-01  6109   0.198E-01    0.182E-01
RMM:   3    -0.231004393847E+04   -0.91681E-03   -0.12345E-02  5640   0.676E-02    0.174E-01
RMM:   4    -0.231004376200E+04    0.17646E-03   -0.10723E-03  3867   0.145E-02    0.744E-02
RMM:   5    -0.231004370301E+04    0.58993E-04   -0.14688E-04  3660   0.863E-03    0.417E-02
RMM:   6    -0.231004368284E+04    0.20171E-04   -0.10821E-04  3778   0.823E-03    0.147E-02
RMM:   7    -0.231004368105E+04    0.17892E-05   -0.12496E-05  2866   0.524E-03
 195 F= -.23303470E+04 E0= -.23303470E+04  d E =-.164541E-02  mag=     4.0000
       N       E                     dE             d eps       ncg     rms          rms(c)
DAV:   1    -0.231003659185E+04    0.70910E-02   -0.63155E-01  4416   0.729E-01    0.241E-01
RMM:   2    -0.231004490135E+04   -0.83095E-02   -0.84563E-02  6162   0.163E-01    0.173E-01
RMM:   3    -0.231004544089E+04   -0.53954E-03   -0.80774E-03  5586   0.524E-02    0.160E-01
RMM:   4    -0.231004527644E+04    0.16445E-03   -0.71579E-04  3425   0.123E-02    0.606E-02
RMM:   5    -0.231004523572E+04    0.40722E-04   -0.10577E-04  3276   0.714E-03    0.374E-02
RMM:   6    -0.231004521791E+04    0.17810E-04   -0.83743E-05  3403   0.738E-03    0.125E-02
RMM:   7    -0.231004521722E+04    0.68941E-06   -0.98826E-06  2856   0.477E-03
 196 F= -.23303481E+04 E0= -.23303481E+04  d E =-.114040E-02  mag=     4.0000
       N       E                     dE             d eps       ncg     rms          rms(c)
DAV:   1    -0.231004219557E+04    0.30223E-02   -0.23488E-01  4448   0.445E-01    0.147E-01
RMM:   2    -0.231004530808E+04   -0.31125E-02   -0.31644E-02  6185   0.996E-02    0.107E-01
RMM:   3    -0.231004548712E+04   -0.17904E-03   -0.27684E-03  4721   0.313E-02    0.981E-02
RMM:   4    -0.231004542676E+04    0.60362E-04   -0.26549E-04  3082   0.815E-03    0.369E-02
RMM:   5    -0.231004541120E+04    0.15554E-04   -0.37448E-05  3005   0.474E-03    0.229E-02
RMM:   6    -0.231004540390E+04    0.73022E-05   -0.32129E-05  2971   0.483E-03
 197 F= -.23303481E+04 E0= -.23303481E+04  d E =-.108677E-02  mag=     4.0000
       N       E                     dE             d eps       ncg     rms          rms(c)
DAV:   1    -0.231004469080E+04    0.72041E-03   -0.51631E-02  4528   0.209E-01    0.681E-02
RMM:   2    -0.231004536086E+04   -0.67006E-03   -0.68195E-03  6208   0.471E-02    0.516E-02
RMM:   3    -0.231004540532E+04   -0.44457E-04   -0.67121E-04  3352   0.160E-02    0.464E-02
RMM:   4    -0.231004539146E+04    0.13861E-04   -0.59337E-05  2914   0.487E-03    0.172E-02
RMM:   5    -0.231004538785E+04    0.36034E-05   -0.87395E-06  2805   0.253E-03
 198 F= -.23303482E+04 E0= -.23303482E+04  d E =-.118276E-02  mag=     4.0000
       N       E                     dE             d eps       ncg     rms          rms(c)
DAV:   1    -0.231004217285E+04    0.32186E-02   -0.32921E-01  4432   0.534E-01    0.179E-01
RMM:   2    -0.231004656431E+04   -0.43915E-02   -0.44710E-02  6134   0.119E-01    0.122E-01
RMM:   3    -0.231004681967E+04   -0.25535E-03   -0.38279E-03  4911   0.355E-02    0.111E-01
RMM:   4    -0.231004674450E+04    0.75165E-04   -0.36358E-04  3221   0.920E-03    0.435E-02
RMM:   5    -0.231004672055E+04    0.23954E-04   -0.55799E-05  3043   0.592E-03    0.252E-02
RMM:   6    -0.231004671277E+04    0.77769E-05   -0.44916E-05  3073   0.589E-03
 199 F= -.23303493E+04 E0= -.23303493E+04  d E =-.108382E-02  mag=     4.0000
       N       E                     dE             d eps       ncg     rms          rms(c)
DAV:   1    -0.231003563974E+04    0.11081E-01   -0.85916E-01  4416   0.862E-01    0.288E-01
RMM:   2    -0.231004699229E+04   -0.11353E-01   -0.11585E-01  6047   0.191E-01    0.187E-01
RMM:   3    -0.231004775120E+04   -0.75892E-03   -0.10890E-02  5570   0.610E-02    0.174E-01
RMM:   4    -0.231004756942E+04    0.18178E-03   -0.96752E-04  3933   0.141E-02    0.713E-02
RMM:   5    -0.231004750824E+04    0.61179E-04   -0.14938E-04  3612   0.860E-03    0.408E-02
RMM:   6    -0.231004748836E+04    0.19881E-04   -0.11015E-04  3775   0.834E-03    0.143E-02
RMM:   7    -0.231004748704E+04    0.13189E-05   -0.12715E-05  2876   0.516E-03
 200 F= -.23303497E+04 E0= -.23303497E+04  d E =-.147007E-02  mag=     4.0000
       N       E                     dE             d eps       ncg     rms          rms(c)
DAV:   1    -0.231004698910E+04    0.49926E-03   -0.34940E-02  4592   0.173E-01    0.570E-02
RMM:   2    -0.231004744239E+04   -0.45328E-03   -0.46534E-03  6078   0.388E-02    0.310E-02
RMM:   3    -0.231004747120E+04   -0.28808E-04   -0.42441E-04  3097   0.124E-02    0.256E-02
RMM:   4    -0.231004746858E+04    0.26128E-05   -0.37350E-05  2884   0.361E-03
 201 F= -.23303497E+04 E0= -.23303497E+04  d E =-.152943E-02  mag=     4.0000
