       N       E                     dE             d eps       ncg     rms          rms(c)
DAV:   1     0.127526077690E+05    0.12753E+05   -0.84247E+05  4700   0.140E+03
DAV:   2    -0.117126391940E+04   -0.13924E+05   -0.13302E+05  5200   0.320E+02
DAV:   3    -0.249081747033E+04   -0.13196E+04   -0.13061E+04  5650   0.106E+02
DAV:   4    -0.252478992216E+04   -0.33972E+02   -0.33790E+02  6200   0.230E+01
DAV:   5    -0.252567426208E+04   -0.88434E+00   -0.88246E+00  5850   0.296E+00    0.170E+02
RMM:   6    -0.149370905991E+04    0.10320E+04   -0.18651E+03  4635   0.364E+01    0.720E+01
RMM:   7    -0.165838553537E+04   -0.16468E+03   -0.27539E+02  5262   0.138E+01    0.504E+01
RMM:   8    -0.171645131406E+04   -0.58066E+02   -0.54065E+01  5588   0.739E+00    0.450E+01
RMM:   9    -0.178925131889E+04   -0.72800E+02   -0.68938E+01  5100   0.794E+00    0.356E+01
RMM:  10    -0.191111043549E+04   -0.12186E+03   -0.63331E+01  5538   0.738E+00    0.326E+01
RMM:  11    -0.197244721297E+04   -0.61337E+02   -0.27792E+01  5578   0.446E+00    0.213E+01
RMM:  12    -0.206490901445E+04   -0.92462E+02   -0.36407E+01  4888   0.455E+00    0.162E+01
RMM:  13    -0.212067099392E+04   -0.55762E+02   -0.22743E+01  5423   0.362E+00    0.139E+01
RMM:  14    -0.222652599191E+04   -0.10585E+03   -0.81109E+01  4689   0.640E+00    0.967E+00
RMM:  15    -0.228836364750E+04   -0.61838E+02   -0.52910E+01  4745   0.504E+00    0.738E+00
RMM:  16    -0.230835340476E+04   -0.19990E+02   -0.20328E+01  4915   0.338E+00    0.639E+00
RMM:  17    -0.231265416089E+04   -0.43008E+01   -0.51494E+00  5484   0.150E+00    0.511E+00
RMM:  18    -0.231538482097E+04   -0.27307E+01   -0.20315E+00  4741   0.925E-01    0.253E+00
RMM:  19    -0.231738186488E+04   -0.19970E+01   -0.10432E+00  4825   0.673E-01    0.131E+00
RMM:  20    -0.231779294902E+04   -0.41108E+00   -0.26029E-01  4834   0.356E-01    0.636E-01
RMM:  21    -0.231793649031E+04   -0.14354E+00   -0.99793E-02  4931   0.210E-01    0.430E-01
RMM:  22    -0.231798963516E+04   -0.53145E-01   -0.20204E-02  5023   0.115E-01    0.309E-01
RMM:  23    -0.231803174256E+04   -0.42107E-01   -0.13052E-02  4678   0.741E-02    0.242E-01
RMM:  24    -0.231806728828E+04   -0.35546E-01   -0.90731E-03  4626   0.677E-02    0.124E-01
RMM:  25    -0.231808283118E+04   -0.15543E-01   -0.39248E-03  4884   0.486E-02    0.820E-02
RMM:  26    -0.231809200073E+04   -0.91695E-02   -0.21651E-03  4743   0.316E-02    0.495E-02
RMM:  27    -0.231809907236E+04   -0.70716E-02   -0.17807E-03  4649   0.291E-02    0.386E-02
RMM:  28    -0.231810084354E+04   -0.17712E-02   -0.59114E-04  4587   0.190E-02    0.275E-02
RMM:  29    -0.231810156941E+04   -0.72587E-03   -0.21779E-04  4121   0.898E-03    0.100E-02
RMM:  30    -0.231810186327E+04   -0.29387E-03   -0.70596E-05  3794   0.783E-03    0.579E-03
RMM:  31    -0.231810196044E+04   -0.97169E-04   -0.25513E-05  3284   0.412E-03    0.301E-03
RMM:  32    -0.231810200994E+04   -0.49496E-04   -0.10033E-05  3056   0.353E-03    0.208E-03
RMM:  33    -0.231810203127E+04   -0.21333E-04   -0.60716E-06  2929   0.249E-03    0.109E-03
RMM:  34    -0.231810203677E+04   -0.54978E-05   -0.26785E-06  2628   0.199E-03
   1 F= -.23394319E+04 E0= -.23394319E+04  d E =-.170354E-04  mag=     3.0000
       N       E                     dE             d eps       ncg     rms          rms(c)
DAV:   1    -0.231808550109E+04    0.16530E-01   -0.18799E+00  4600   0.676E-01    0.297E-01
RMM:   2    -0.231808628753E+04   -0.78645E-03   -0.10806E-02  4752   0.520E-02    0.263E-01
RMM:   3    -0.231808634663E+04   -0.59099E-04   -0.27849E-03  4880   0.303E-02    0.298E-01
RMM:   4    -0.231808586674E+04    0.47989E-03   -0.12326E-03  4495   0.147E-02    0.217E-01
RMM:   5    -0.231808542133E+04    0.44541E-03   -0.52274E-04  3460   0.105E-02    0.500E-02
RMM:   6    -0.231808542193E+04   -0.60209E-06   -0.86229E-05  3201   0.492E-03
   2 F= -.23394163E+04 E0= -.23394163E+04  d E =-.139762E-04  mag=     3.0000
       N       E                     dE             d eps       ncg     rms          rms(c)
DAV:   1    -0.231810983544E+04   -0.24414E-01   -0.75220E+00  4700   0.136E+00    0.587E-01
RMM:   2    -0.231811233638E+04   -0.25009E-02   -0.37945E-02  4869   0.964E-02    0.512E-01
RMM:   3    -0.231811276257E+04   -0.42619E-03   -0.10163E-02  5955   0.533E-02    0.606E-01
RMM:   4    -0.231811076371E+04    0.19989E-02   -0.49470E-03  5606   0.280E-02    0.437E-01
RMM:   5    -0.231810894490E+04    0.18188E-02   -0.20551E-03  4810   0.192E-02    0.985E-02
RMM:   6    -0.231810894555E+04   -0.64503E-06   -0.32019E-04  3671   0.784E-03    0.548E-02
RMM:   7    -0.231810894376E+04    0.17857E-05   -0.11600E-04  3166   0.575E-03    0.420E-02
RMM:   8    -0.231810892987E+04    0.13887E-04   -0.31835E-05  3037   0.372E-03    0.185E-02
RMM:   9    -0.231810893317E+04   -0.32936E-05   -0.10078E-05  2950   0.256E-03
   3 F= -.23394376E+04 E0= -.23394376E+04  d E =-.206013E-04  mag=     3.0000
       N       E                     dE             d eps       ncg     rms          rms(c)
DAV:   1    -0.231809085363E+04    0.18076E-01   -0.36968E+00  4600   0.103E+00    0.422E-01
RMM:   2    -0.231809146243E+04   -0.60880E-03   -0.22844E-02  5237   0.822E-02    0.349E-01
RMM:   3    -0.231809197098E+04   -0.50855E-03   -0.48364E-03  5131   0.418E-02    0.445E-01
RMM:   4    -0.231809054177E+04    0.14292E-02   -0.28372E-03  5400   0.233E-02    0.252E-01
RMM:   5    -0.231809017518E+04    0.36659E-03   -0.12057E-03  4597   0.153E-02    0.161E-01
RMM:   6    -0.231808983352E+04    0.34166E-03   -0.28735E-04  3838   0.933E-03    0.312E-02
RMM:   7    -0.231808983673E+04   -0.32039E-05   -0.46348E-05  3065   0.435E-03
   4 F= -.23394195E+04 E0= -.23394195E+04  d E =-.146063E-04  mag=     3.0000
       N       E                     dE             d eps       ncg     rms          rms(c)
DAV:   1    -0.231809498627E+04   -0.51528E-02   -0.76604E+00  4600   0.145E+00    0.633E-01
RMM:   2    -0.231809510754E+04   -0.12127E-03   -0.57027E-02  5081   0.117E-01    0.471E-01
RMM:   3    -0.231809440399E+04    0.70355E-03   -0.10180E-02  5314   0.638E-02    0.508E-01
RMM:   4    -0.231809247845E+04    0.19255E-02   -0.67020E-03  5895   0.365E-02    0.349E-01
RMM:   5    -0.231809205544E+04    0.42301E-03   -0.23823E-03  5358   0.226E-02    0.286E-01
RMM:   6    -0.231809102959E+04    0.10259E-02   -0.70823E-04  4533   0.136E-02    0.556E-02
RMM:   7    -0.231809103669E+04   -0.70955E-05   -0.15421E-04  3184   0.661E-03    0.533E-02
RMM:   8    -0.231809100125E+04    0.35435E-04   -0.56671E-05  3123   0.456E-03    0.218E-02
RMM:   9    -0.231809100226E+04   -0.10117E-05   -0.21503E-05  3078   0.342E-03
   5 F= -.23394210E+04 E0= -.23394210E+04  d E =-.190845E-04  mag=     3.0000
       N       E                     dE             d eps       ncg     rms          rms(c)
DAV:   1    -0.231809025136E+04    0.74990E-03   -0.40569E+00  4600   0.107E+00    0.529E-01
RMM:   2    -0.231809158861E+04   -0.13373E-02   -0.53826E-02  5151   0.118E-01    0.441E-01
RMM:   3    -0.231809185722E+04   -0.26861E-03   -0.78316E-03  4948   0.532E-02    0.579E-01
RMM:   4    -0.231808933089E+04    0.25263E-02   -0.59612E-03  5766   0.357E-02    0.282E-01
RMM:   5    -0.231808856526E+04    0.76564E-03   -0.16745E-03  5064   0.220E-02    0.164E-01
RMM:   6    -0.231808814506E+04    0.42020E-03   -0.37763E-04  4143   0.101E-02    0.398E-02
RMM:   7    -0.231808813514E+04    0.99121E-05   -0.76982E-05  3300   0.534E-03
   6 F= -.23394181E+04 E0= -.23394181E+04  d E =-.100792E-04  mag=     3.0000
       N       E                     dE             d eps       ncg     rms          rms(c)
DAV:   1    -0.231808250690E+04    0.56382E-02   -0.79729E+00  4600   0.154E+00    0.739E-01
RMM:   2    -0.231808549365E+04   -0.29867E-02   -0.74707E-02  5150   0.141E-01    0.747E-01
RMM:   3    -0.231808353406E+04    0.19596E-02   -0.15868E-02  5261   0.773E-02    0.742E-01
RMM:   4    -0.231808288292E+04    0.65114E-03   -0.11177E-02  6208   0.470E-02    0.575E-01
RMM:   5    -0.231807792513E+04    0.49578E-02   -0.35955E-03  5638   0.300E-02    0.628E-02
RMM:   6    -0.231807785514E+04    0.69992E-04   -0.42921E-04  4023   0.808E-03    0.496E-02
RMM:   7    -0.231807785125E+04    0.38887E-05   -0.10355E-04  3168   0.603E-03    0.447E-02
RMM:   8    -0.231807782967E+04    0.21580E-04   -0.48486E-05  3231   0.431E-03    0.225E-02
RMM:   9    -0.231807782888E+04    0.79308E-06   -0.13942E-05  3036   0.326E-03
   7 F= -.23394075E+04 E0= -.23394075E+04  d E =-.285980E-04  mag=     3.0000
       N       E                     dE             d eps       ncg     rms          rms(c)
DAV:   1    -0.231810157785E+04   -0.23748E-01   -0.67207E+00  4700   0.136E+00    0.449E-01
RMM:   2    -0.231810760253E+04   -0.60247E-02   -0.60246E-02  5077   0.131E-01    0.580E-01
RMM:   3    -0.231810509671E+04    0.25058E-02   -0.64443E-03  5224   0.530E-02    0.393E-01
RMM:   4    -0.231810416393E+04    0.93278E-03   -0.37228E-03  4961   0.284E-02    0.219E-01
RMM:   5    -0.231810369170E+04    0.47222E-03   -0.14965E-03  4471   0.224E-02    0.137E-01
RMM:   6    -0.231810341228E+04    0.27943E-03   -0.27171E-04  3689   0.877E-03    0.300E-02
RMM:   7    -0.231810340891E+04    0.33696E-05   -0.42416E-05  3172   0.439E-03
   8 F= -.23394347E+04 E0= -.23394347E+04  d E =-.140481E-04  mag=     3.0000
       N       E                     dE             d eps       ncg     rms          rms(c)
DAV:   1    -0.231809645376E+04    0.69585E-02   -0.19766E+01  4600   0.227E+00    0.604E-01
RMM:   2    -0.231810912567E+04   -0.12672E-01   -0.12148E-01  5022   0.175E-01    0.716E-01
RMM:   3    -0.231810330850E+04    0.58172E-02   -0.13690E-02  5439   0.764E-02    0.500E-01
RMM:   4    -0.231810330865E+04   -0.15624E-06   -0.63546E-03  5604   0.335E-02    0.517E-01
RMM:   5    -0.231810072255E+04    0.25861E-02   -0.32233E-03  5338   0.263E-02    0.117E-01
RMM:   6    -0.231810064698E+04    0.75570E-04   -0.55686E-04  3688   0.108E-02    0.681E-02
RMM:   7    -0.231810061114E+04    0.35845E-04   -0.15904E-04  3332   0.721E-03    0.448E-02
RMM:   8    -0.231810058445E+04    0.26694E-04   -0.34194E-05  3102   0.383E-03    0.171E-02
RMM:   9    -0.231810058544E+04   -0.99385E-06   -0.13964E-05  2988   0.270E-03
   9 F= -.23394294E+04 E0= -.23394293E+04  d E =-.206383E-04  mag=     3.0000
       N       E                     dE             d eps       ncg     rms          rms(c)
DAV:   1    -0.231809395237E+04    0.66321E-02   -0.10049E+01  4700   0.169E+00    0.424E-01
RMM:   2    -0.231809709503E+04   -0.31427E-02   -0.52910E-02  4444   0.125E-01    0.316E-01
RMM:   3    -0.231809887044E+04   -0.17754E-02   -0.67105E-03  4774   0.613E-02    0.570E-01
RMM:   4    -0.231809576675E+04    0.31037E-02   -0.38025E-03  4717   0.289E-02    0.156E-01
RMM:   5    -0.231809546973E+04    0.29702E-03   -0.92034E-04  3820   0.211E-02    0.767E-02
RMM:   6    -0.231809539273E+04    0.77004E-04   -0.14075E-04  3673   0.626E-03    0.272E-02
RMM:   7    -0.231809538793E+04    0.48013E-05   -0.31698E-05  3044   0.414E-03
  10 F= -.23394230E+04 E0= -.23394229E+04  d E =-.151438E-04  mag=     3.0000
       N       E                     dE             d eps       ncg     rms          rms(c)
DAV:   1    -0.231808625791E+04    0.91348E-02   -0.19913E+01  4600   0.232E+00    0.697E-01
RMM:   2    -0.231809461766E+04   -0.83598E-02   -0.14301E-01  4655   0.213E-01    0.509E-01
RMM:   3    -0.231809438192E+04    0.23574E-03   -0.19626E-02  5178   0.105E-01    0.569E-01
RMM:   4    -0.231809011807E+04    0.42639E-02   -0.78130E-03  5754   0.440E-02    0.277E-01
RMM:   5    -0.231808994214E+04    0.17592E-03   -0.22224E-03  5274   0.231E-02    0.288E-01
RMM:   6    -0.231808920368E+04    0.73846E-03   -0.66043E-04  4128   0.114E-02    0.734E-02
RMM:   7    -0.231808919521E+04    0.84714E-05   -0.18422E-04  3508   0.809E-03    0.570E-02
RMM:   8    -0.231808916235E+04    0.32853E-04   -0.73022E-05  3247   0.576E-03    0.241E-02
RMM:   9    -0.231808916753E+04   -0.51729E-05   -0.23185E-05  3174   0.380E-03
  11 F= -.23394217E+04 E0= -.23394217E+04  d E =-.186654E-04  mag=     3.0000
       N       E                     dE             d eps       ncg     rms          rms(c)
DAV:   1    -0.231808272974E+04    0.64326E-02   -0.10033E+01  4700   0.173E+00    0.613E-01
RMM:   2    -0.231808489751E+04   -0.21678E-02   -0.77400E-02  4621   0.152E-01    0.384E-01
RMM:   3    -0.231808672864E+04   -0.18311E-02   -0.13003E-02  5352   0.808E-02    0.551E-01
RMM:   4    -0.231808204864E+04    0.46800E-02   -0.58328E-03  5454   0.368E-02    0.107E-01
RMM:   5    -0.231808225106E+04   -0.20242E-03   -0.10569E-03  4386   0.178E-02    0.213E-01
RMM:   6    -0.231808184333E+04    0.40773E-03   -0.41767E-04  3922   0.920E-03    0.607E-02
RMM:   7    -0.231808180147E+04    0.41857E-04   -0.74171E-05  3261   0.575E-03    0.205E-02
RMM:   8    -0.231808179769E+04    0.37781E-05   -0.29240E-05  3151   0.423E-03
  12 F= -.23394115E+04 E0= -.23394115E+04  d E =-.199195E-04  mag=     3.0000
       N       E                     dE             d eps       ncg     rms          rms(c)
DAV:   1    -0.231809334933E+04   -0.11548E-01   -0.19713E+01  4600   0.236E+00    0.772E-01
RMM:   2    -0.231810333711E+04   -0.99878E-02   -0.17656E-01  4671   0.216E-01    0.452E-01
RMM:   3    -0.231810594138E+04   -0.26043E-02   -0.21072E-02  5265   0.111E-01    0.746E-01
RMM:   4    -0.231809959779E+04    0.63436E-02   -0.80650E-03  5881   0.421E-02    0.365E-01
RMM:   5    -0.231809887061E+04    0.72718E-03   -0.28225E-03  5322   0.217E-02    0.233E-01
RMM:   6    -0.231809827372E+04    0.59689E-03   -0.70962E-04  4375   0.132E-02    0.541E-02
RMM:   7    -0.231809830525E+04   -0.31531E-04   -0.19385E-04  3448   0.718E-03    0.693E-02
RMM:   8    -0.231809825725E+04    0.48001E-04   -0.77943E-05  3118   0.513E-03    0.196E-02
RMM:   9    -0.231809827698E+04   -0.19724E-04   -0.21219E-05  3065   0.331E-03    0.733E-03
RMM:  10    -0.231809829574E+04   -0.18763E-04   -0.64589E-06  2950   0.241E-03    0.419E-03
RMM:  11    -0.231809830837E+04   -0.12629E-04   -0.38291E-06  2797   0.202E-03    0.271E-03
RMM:  12    -0.231809831672E+04   -0.83475E-05   -0.32008E-06  2778   0.174E-03
  13 F= -.23394284E+04 E0= -.23394284E+04  d E =-.146366E-04  mag=     3.0000
       N       E                     dE             d eps       ncg     rms          rms(c)
DAV:   1    -0.231810205392E+04   -0.37455E-02   -0.51912E+00  4600   0.121E+00    0.372E-01
RMM:   2    -0.231810384227E+04   -0.17883E-02   -0.39377E-02  4575   0.111E-01    0.258E-01
RMM:   3    -0.231810410229E+04   -0.26002E-03   -0.55214E-03  4768   0.575E-02    0.326E-01
RMM:   4    -0.231810246716E+04    0.16351E-02   -0.24465E-03  4863   0.242E-02    0.897E-02
RMM:   5    -0.231810255419E+04   -0.87022E-04   -0.54667E-04  3674   0.144E-02    0.159E-01
RMM:   6    -0.231810232560E+04    0.22859E-03   -0.19998E-04  3370   0.684E-03    0.399E-02
RMM:   7    -0.231810230681E+04    0.18786E-04   -0.41501E-05  3077   0.444E-03    0.169E-02
RMM:   8    -0.231810231190E+04   -0.50892E-05   -0.23404E-05  2991   0.355E-03
  14 F= -.23394299E+04 E0= -.23394299E+04  d E =-.239684E-04  mag=     3.0000
       N       E                     dE             d eps       ncg     rms          rms(c)
DAV:   1    -0.231810002151E+04    0.22853E-02   -0.88594E-01  4600   0.306E-01    0.310E-01
RMM:   2    -0.231810128189E+04   -0.12604E-02   -0.12692E-02  5754   0.486E-02    0.383E-01
RMM:   3    -0.231809958072E+04    0.17012E-02   -0.30521E-03  5351   0.276E-02    0.214E-01
RMM:   4    -0.231809954353E+04    0.37193E-04   -0.11448E-03  4656   0.153E-02    0.225E-01
RMM:   5    -0.231809920998E+04    0.33355E-03   -0.59113E-04  3663   0.105E-02    0.111E-01
RMM:   6    -0.231809908716E+04    0.12282E-03   -0.10545E-04  3180   0.595E-03    0.291E-02
RMM:   7    -0.231809909585E+04   -0.86869E-05   -0.52247E-05  3044   0.445E-03
  15 F= -.23394314E+04 E0= -.23394314E+04  d E =-.119916E-04  mag=     3.0000
       N       E                     dE             d eps       ncg     rms          rms(c)
DAV:   1    -0.231811188555E+04   -0.12798E-01   -0.45497E-01  4600   0.236E-01    0.138E-01
RMM:   2    -0.231811206383E+04   -0.17828E-03   -0.26178E-03  4574   0.224E-02    0.109E-01
RMM:   3    -0.231811217102E+04   -0.10719E-03   -0.48865E-04  3750   0.135E-02    0.166E-01
RMM:   4    -0.231811195866E+04    0.21236E-03   -0.21114E-04  3364   0.694E-03    0.437E-02
RMM:   5    -0.231811196691E+04   -0.82542E-05   -0.46827E-05  3110   0.435E-03
  16 F= -.23394431E+04 E0= -.23394431E+04  d E =-.134510E-04  mag=     3.0000
       N       E                     dE             d eps       ncg     rms          rms(c)
DAV:   1    -0.231810020959E+04    0.11749E-01   -0.91354E-01  4600   0.337E-01    0.414E-01
RMM:   2    -0.231809940444E+04    0.80515E-03   -0.17674E-02  5495   0.546E-02    0.392E-01
RMM:   3    -0.231809801964E+04    0.13848E-02   -0.51193E-03  5497   0.364E-02    0.275E-01
RMM:   4    -0.231809714742E+04    0.87222E-03   -0.14825E-03  4864   0.181E-02    0.114E-01
RMM:   5    -0.231809717724E+04   -0.29822E-04   -0.47038E-04  4401   0.106E-02    0.144E-01
RMM:   6    -0.231809699535E+04    0.18188E-03   -0.18494E-04  3099   0.691E-03    0.444E-02
RMM:   7    -0.231809700201E+04   -0.66576E-05   -0.75315E-05  3224   0.470E-03
  17 F= -.23394258E+04 E0= -.23394258E+04  d E =-.219637E-04  mag=     3.0000
       N       E                     dE             d eps       ncg     rms          rms(c)
DAV:   1    -0.231810203424E+04   -0.50389E-02   -0.45401E-01  4600   0.218E-01    0.274E-01
RMM:   2    -0.231810180868E+04    0.22556E-03   -0.90979E-03  5220   0.374E-02    0.247E-01
RMM:   3    -0.231810127258E+04    0.53611E-03   -0.22244E-03  4876   0.252E-02    0.185E-01
RMM:   4    -0.231810096790E+04    0.30468E-03   -0.66622E-04  4404   0.130E-02    0.124E-01
RMM:   5    -0.231810100581E+04   -0.37910E-04   -0.38157E-04  3498   0.854E-03    0.140E-01
RMM:   6    -0.231810082957E+04    0.17624E-03   -0.12554E-04  3042   0.622E-03    0.222E-02
RMM:   7    -0.231810083481E+04   -0.52439E-05   -0.33699E-05  3047   0.363E-03
  18 F= -.23394300E+04 E0= -.23394300E+04  d E =-.149690E-04  mag=     3.0000
       N       E                     dE             d eps       ncg     rms          rms(c)
DAV:   1    -0.231810074300E+04    0.86568E-04   -0.89145E-01  4600   0.310E-01    0.206E-01
RMM:   2    -0.231810110033E+04   -0.35733E-03   -0.69144E-03  4664   0.314E-02    0.127E-01
RMM:   3    -0.231810091850E+04    0.18183E-03   -0.68138E-04  4016   0.176E-02    0.118E-01
RMM:   4    -0.231810095976E+04   -0.41267E-04   -0.36381E-04  3887   0.898E-03    0.129E-01
RMM:   5    -0.231810088457E+04    0.75195E-04   -0.18962E-04  3350   0.717E-03    0.749E-02
RMM:   6    -0.231810083303E+04    0.51538E-04   -0.73810E-05  2967   0.484E-03    0.188E-02
RMM:   7    -0.231810083008E+04    0.29529E-05   -0.96566E-06  2832   0.239E-03
  19 F= -.23394313E+04 E0= -.23394313E+04  d E =-.192313E-04  mag=     3.0000
