       N       E                     dE             d eps       ncg     rms          rms(c)
DAV:   1     0.127719972803E+05    0.12772E+05   -0.82847E+05  4416   0.144E+03
DAV:   2    -0.105303893305E+04   -0.13825E+05   -0.13242E+05  5288   0.331E+02
DAV:   3    -0.246588583031E+04   -0.14128E+04   -0.14000E+04  5328   0.111E+02
DAV:   4    -0.251045128488E+04   -0.44565E+02   -0.44349E+02  6632   0.292E+01
DAV:   5    -0.251125853445E+04   -0.80725E+00   -0.80583E+00  5520   0.321E+00    0.170E+02
RMM:   6    -0.147798308407E+04    0.10333E+04   -0.19449E+03  4376   0.390E+01    0.760E+01
RMM:   7    -0.166196338260E+04   -0.18398E+03   -0.35805E+02  4969   0.147E+01    0.592E+01
RMM:   8    -0.168515109412E+04   -0.23188E+02   -0.75329E+01  5185   0.817E+00    0.421E+01
RMM:   9    -0.174563930085E+04   -0.60488E+02   -0.57939E+01  5113   0.594E+00    0.361E+01
RMM:  10    -0.190239354214E+04   -0.15675E+03   -0.72573E+01  4986   0.825E+00    0.363E+01
RMM:  11    -0.195530341618E+04   -0.52910E+02   -0.29753E+01  5120   0.493E+00    0.195E+01
RMM:  12    -0.205259037937E+04   -0.97287E+02   -0.39564E+01  4611   0.506E+00    0.136E+01
RMM:  13    -0.218065795896E+04   -0.12807E+03   -0.92219E+01  4430   0.697E+00    0.982E+00
RMM:  14    -0.227323576178E+04   -0.92578E+02   -0.91755E+01  4409   0.643E+00    0.548E+00
RMM:  15    -0.228866933984E+04   -0.15434E+02   -0.16662E+01  4519   0.365E+00    0.349E+00
RMM:  16    -0.229638124348E+04   -0.77119E+01   -0.86001E+00  4534   0.197E+00    0.160E+00
RMM:  17    -0.229799677636E+04   -0.16155E+01   -0.13958E+00  4736   0.127E+00    0.961E-01
RMM:  18    -0.229852582302E+04   -0.52905E+00   -0.44684E-01  4786   0.385E-01    0.840E-01
RMM:  19    -0.229865669503E+04   -0.13087E+00   -0.77714E-02  4655   0.270E-01    0.385E-01
RMM:  20    -0.229871661481E+04   -0.59920E-01   -0.32934E-02  4563   0.124E-01    0.252E-01
RMM:  21    -0.229874494771E+04   -0.28333E-01   -0.15465E-02  4512   0.110E-01    0.317E-01
RMM:  22    -0.229875925448E+04   -0.14307E-01   -0.70945E-03  4522   0.657E-02    0.201E-01
RMM:  23    -0.229877049207E+04   -0.11238E-01   -0.47091E-03  4458   0.561E-02    0.118E-01
RMM:  24    -0.229877814861E+04   -0.76565E-02   -0.33989E-03  4518   0.428E-02    0.883E-02
RMM:  25    -0.229878192426E+04   -0.37756E-02   -0.20803E-03  4634   0.359E-02    0.117E-01
RMM:  26    -0.229878291810E+04   -0.99384E-03   -0.67129E-04  4482   0.185E-02    0.113E-01
RMM:  27    -0.229878306449E+04   -0.14639E-03   -0.79799E-05  3722   0.892E-03    0.114E-01
RMM:  28    -0.229878269264E+04    0.37184E-03   -0.18769E-04  3567   0.113E-02    0.104E-01
RMM:  29    -0.229878153549E+04    0.11572E-02   -0.11009E-03  4062   0.213E-02    0.990E-02
RMM:  30    -0.229878125475E+04    0.28074E-03   -0.23798E-04  3584   0.114E-02    0.991E-02
RMM:  31    -0.229878123433E+04    0.20421E-04   -0.56767E-05  3148   0.752E-03    0.959E-02
RMM:  32    -0.229878085380E+04    0.38053E-03   -0.42560E-04  3942   0.111E-02    0.105E-01
RMM:  33    -0.229877730659E+04    0.35472E-02   -0.68298E-03  4726   0.455E-02    0.203E-01
RMM:  34    -0.229878105286E+04   -0.37463E-02   -0.62836E-03  4709   0.634E-02    0.772E-02
RMM:  35    -0.229878192073E+04   -0.86787E-03   -0.84579E-04  4051   0.219E-02    0.779E-02
RMM:  36    -0.229878314347E+04   -0.12227E-02   -0.51898E-03  4632   0.362E-02    0.460E-02
RMM:  37    -0.229878397480E+04   -0.83133E-03   -0.10801E-03  3885   0.253E-02    0.596E-02
RMM:  38    -0.229878431954E+04   -0.34474E-03   -0.46543E-04  3889   0.148E-02    0.694E-02
RMM:  39    -0.229878417438E+04    0.14516E-03   -0.10606E-04  3479   0.138E-02    0.763E-02
RMM:  40    -0.229878382047E+04    0.35392E-03   -0.32743E-04  3714   0.127E-02    0.808E-02
RMM:  41    -0.229878320876E+04    0.61171E-03   -0.79623E-04  4097   0.164E-02    0.890E-02
RMM:  42    -0.229878318146E+04    0.27299E-04   -0.15263E-04  3380   0.959E-03    0.848E-02
RMM:  43    -0.229878331642E+04   -0.13496E-03   -0.29020E-05  3051   0.853E-03    0.793E-02
RMM:  44    -0.229878352161E+04   -0.20519E-03   -0.11814E-04  3329   0.848E-03    0.744E-02
RMM:  45    -0.229878414667E+04   -0.62506E-03   -0.21410E-03  4309   0.284E-02    0.628E-02
RMM:  46    -0.229878514065E+04   -0.99398E-03   -0.54363E-03  4622   0.382E-02    0.817E-02
RMM:  47    -0.229878578870E+04   -0.64805E-03   -0.41033E-04  3764   0.280E-02    0.102E-01
RMM:  48    -0.229878568605E+04    0.10265E-03   -0.68832E-05  3284   0.132E-02    0.103E-01
RMM:  49    -0.229878588448E+04   -0.19843E-03   -0.71855E-05  3129   0.498E-03    0.105E-01
RMM:  50    -0.229878583333E+04    0.51151E-04   -0.81499E-06  2814   0.479E-03    0.107E-01
RMM:  51    -0.229878593736E+04   -0.10403E-03   -0.19058E-05  2758   0.273E-03    0.109E-01
RMM:  52    -0.229878554971E+04    0.38765E-03   -0.18892E-04  3463   0.106E-02    0.106E-01
RMM:  53    -0.229878576151E+04   -0.21180E-03   -0.60667E-05  3234   0.818E-03    0.966E-02
RMM:  54    -0.229878526349E+04    0.49802E-03   -0.30907E-04  3696   0.124E-02    0.936E-02
RMM:  55    -0.229878558678E+04   -0.32329E-03   -0.12333E-04  3439   0.118E-02    0.843E-02
RMM:  56    -0.229878573974E+04   -0.15296E-03   -0.61897E-05  3024   0.618E-03    0.834E-02
RMM:  57    -0.229878569867E+04    0.41069E-04   -0.93992E-06  2622   0.338E-03    0.825E-02
RMM:  58    -0.229878633182E+04   -0.63315E-03   -0.10456E-03  4081   0.216E-02    0.735E-02
RMM:  59    -0.229878662795E+04   -0.29613E-03   -0.18378E-04  3313   0.118E-02    0.829E-02
RMM:  60    -0.229878677102E+04   -0.14307E-03   -0.90975E-05  3214   0.696E-03    0.867E-02
RMM:  61    -0.229878683517E+04   -0.64152E-04   -0.18071E-05  2862   0.483E-03    0.882E-02
RMM:  62    -0.229878732688E+04   -0.49171E-03   -0.50686E-04  3987   0.126E-02    0.843E-02
RMM:  63    -0.229878748198E+04   -0.15509E-03   -0.77822E-05  3048   0.851E-03    0.902E-02
RMM:  64    -0.229878757939E+04   -0.97416E-04   -0.44289E-05  2989   0.479E-03    0.928E-02
RMM:  65    -0.229878748775E+04    0.91641E-04   -0.13939E-05  2873   0.530E-03    0.963E-02
RMM:  66    -0.229878750522E+04   -0.17466E-04   -0.94241E-07  2439   0.182E-03    0.941E-02
RMM:  67    -0.229878737926E+04    0.12596E-03   -0.20778E-05  2823   0.336E-03    0.959E-02
RMM:  68    -0.229878734911E+04    0.30144E-04   -0.42587E-06  1932   0.159E-03    0.955E-02
RMM:  69    -0.229878722962E+04    0.11949E-03   -0.25001E-05  2614   0.272E-03    0.964E-02
RMM:  70    -0.229878708592E+04    0.14370E-03   -0.37408E-05  2839   0.322E-03    0.968E-02
RMM:  71    -0.229878712370E+04   -0.37778E-04   -0.34231E-06  2509   0.299E-03    0.937E-02
RMM:  72    -0.229878712561E+04   -0.19116E-05   -0.54967E-07  2084   0.138E-03
   1 F= -.23191472E+04 E0= -.23191472E+04  d E =-.231915E+04  mag=     1.9996
       N       E                     dE             d eps       ncg     rms          rms(c)
DAV:   1    -0.229897621646E+04   -0.18909E+00   -0.37304E+01  4512   0.493E+00    0.164E+00
RMM:   2    -0.229920751625E+04   -0.23130E+00   -0.23683E+00  6006   0.107E+00    0.165E+00
RMM:   3    -0.229921080973E+04   -0.32935E-02   -0.15791E-01  5680   0.301E-01    0.202E+00
RMM:   4    -0.229917455987E+04    0.36250E-01   -0.30696E-02  5527   0.108E-01    0.615E-01
RMM:   5    -0.229917060224E+04    0.39576E-02   -0.11557E-02  5663   0.732E-02    0.442E-01
RMM:   6    -0.229916782708E+04    0.27752E-02   -0.74437E-03  5593   0.562E-02    0.105E-01
RMM:   7    -0.229916764609E+04    0.18100E-03   -0.63196E-04  4977   0.237E-02    0.512E-02
RMM:   8    -0.229916755294E+04    0.93143E-04   -0.19290E-04  4418   0.920E-03    0.260E-02
RMM:   9    -0.229916750970E+04    0.43247E-04   -0.62287E-05  3665   0.803E-03    0.123E-02
RMM:  10    -0.229916749815E+04    0.11549E-04   -0.31200E-05  3180   0.526E-03    0.805E-03
RMM:  11    -0.229916749544E+04    0.27121E-05   -0.17821E-05  2897   0.490E-03
   2 F= -.23195263E+04 E0= -.23195263E+04  d E =-.379122E+00  mag=     2.0000
       N       E                     dE             d eps       ncg     rms          rms(c)
DAV:   1    -0.229916772364E+04   -0.22550E-03   -0.10531E+01  4528   0.272E+00    0.850E-01
RMM:   2    -0.229923058173E+04   -0.62858E-01   -0.67787E-01  6044   0.596E-01    0.650E-01
RMM:   3    -0.229923403751E+04   -0.34558E-02   -0.42075E-02  5814   0.156E-01    0.926E-01
RMM:   4    -0.229922646979E+04    0.75677E-02   -0.83342E-03  5713   0.572E-02    0.406E-01
RMM:   5    -0.229922485142E+04    0.16184E-02   -0.30945E-03  5515   0.362E-02    0.221E-01
RMM:   6    -0.229922425818E+04    0.59324E-03   -0.21492E-03  5578   0.316E-02    0.812E-02
RMM:   7    -0.229922427676E+04   -0.18581E-04   -0.21173E-04  4174   0.129E-02    0.623E-02
RMM:   8    -0.229922434656E+04   -0.69803E-04   -0.12367E-04  3789   0.719E-03    0.530E-02
RMM:   9    -0.229922444155E+04   -0.94982E-04   -0.12559E-04  3582   0.779E-03    0.481E-02
RMM:  10    -0.229922454353E+04   -0.10199E-03   -0.12045E-04  3455   0.715E-03    0.431E-02
RMM:  11    -0.229922471062E+04   -0.16708E-03   -0.55674E-04  4333   0.137E-02    0.303E-02
RMM:  12    -0.229922486930E+04   -0.15868E-03   -0.38139E-04  3832   0.111E-02    0.224E-02
RMM:  13    -0.229922499256E+04   -0.12327E-03   -0.36382E-04  3867   0.103E-02    0.155E-02
RMM:  14    -0.229922506880E+04   -0.76235E-04   -0.47505E-04  3900   0.110E-02    0.103E-02
RMM:  15    -0.229922513451E+04   -0.65714E-04   -0.10170E-04  3326   0.830E-03    0.732E-03
RMM:  16    -0.229922515383E+04   -0.19321E-04   -0.87868E-05  3223   0.585E-03    0.341E-03
RMM:  17    -0.229922516687E+04   -0.13039E-04   -0.23392E-05  2915   0.463E-03    0.208E-03
RMM:  18    -0.229922517117E+04   -0.42997E-05   -0.13673E-05  2846   0.329E-03
   3 F= -.23195833E+04 E0= -.23195833E+04  d E =-.436144E+00  mag=     2.0000
       N       E                     dE             d eps       ncg     rms          rms(c)
DAV:   1    -0.229935028700E+04   -0.12512E+00   -0.38798E+01  4396   0.555E+00    0.175E+00
RMM:   2    -0.229944676586E+04   -0.96479E-01   -0.12023E+00  5445   0.967E-01    0.711E-01
RMM:   3    -0.229944347908E+04    0.32868E-02   -0.82509E-02  5194   0.314E-01    0.940E-01
RMM:   4    -0.229943756856E+04    0.59105E-02   -0.15905E-02  5457   0.939E-02    0.666E-01
RMM:   5    -0.229943319042E+04    0.43781E-02   -0.93348E-03  5635   0.774E-02    0.354E-01
RMM:   6    -0.229943116305E+04    0.20274E-02   -0.44974E-03  5645   0.469E-02    0.107E-01
RMM:   7    -0.229943099853E+04    0.16452E-03   -0.51804E-04  4838   0.252E-02    0.617E-02
RMM:   8    -0.229943092129E+04    0.77237E-04   -0.32824E-04  4554   0.127E-02    0.388E-02
RMM:   9    -0.229943091656E+04    0.47349E-05   -0.11065E-04  4027   0.106E-02    0.304E-02
RMM:  10    -0.229943094994E+04   -0.33378E-04   -0.10541E-04  4011   0.717E-03    0.210E-02
RMM:  11    -0.229943098320E+04   -0.33260E-04   -0.50835E-05  3193   0.671E-03    0.149E-02
RMM:  12    -0.229943100777E+04   -0.24573E-04   -0.56459E-05  3319   0.553E-03    0.902E-03
RMM:  13    -0.229943101442E+04   -0.66544E-05   -0.10633E-05  2841   0.443E-03
   4 F= -.23197889E+04 E0= -.23197889E+04  d E =-.205576E+00  mag=     2.0000
       N       E                     dE             d eps       ncg     rms          rms(c)
DAV:   1    -0.229943652335E+04   -0.55156E-02   -0.62780E+00  4480   0.220E+00    0.696E-01
RMM:   2    -0.229945148006E+04   -0.14957E-01   -0.18694E-01  5473   0.379E-01    0.280E-01
RMM:   3    -0.229945062321E+04    0.85686E-03   -0.12175E-02  5136   0.122E-01    0.329E-01
RMM:   4    -0.229945003989E+04    0.58331E-03   -0.24070E-03  5211   0.373E-02    0.270E-01
RMM:   5    -0.229944931350E+04    0.72639E-03   -0.15730E-03  5422   0.321E-02    0.140E-01
RMM:   6    -0.229944900562E+04    0.30788E-03   -0.67453E-04  5402   0.185E-02    0.437E-02
RMM:   7    -0.229944897486E+04    0.30765E-04   -0.79590E-05  3512   0.102E-02    0.232E-02
RMM:   8    -0.229944895682E+04    0.18035E-04   -0.55922E-05  3566   0.595E-03    0.127E-02
RMM:   9    -0.229944895207E+04    0.47495E-05   -0.14376E-05  2875   0.478E-03
   5 F= -.23198068E+04 E0= -.23198068E+04  d E =-.223446E+00  mag=     2.0000
       N       E                     dE             d eps       ncg     rms          rms(c)
DAV:   1    -0.229928444545E+04    0.16451E+00   -0.38380E+01  4424   0.565E+00    0.167E+00
RMM:   2    -0.229965852317E+04   -0.37408E+00   -0.36200E+00  6010   0.119E+00    0.226E+00
RMM:   3    -0.229963704311E+04    0.21480E-01   -0.25258E-01  5635   0.367E-01    0.150E+00
RMM:   4    -0.229960950024E+04    0.27543E-01   -0.32014E-02  5304   0.102E-01    0.449E-01
RMM:   5    -0.229960761278E+04    0.18875E-02   -0.79382E-03  5403   0.585E-02    0.379E-01
RMM:   6    -0.229960600815E+04    0.16046E-02   -0.59075E-03  5482   0.580E-02    0.157E-01
RMM:   7    -0.229960584458E+04    0.16357E-03   -0.72382E-04  5063   0.257E-02    0.564E-02
RMM:   8    -0.229960586337E+04   -0.18798E-04   -0.14082E-04  3879   0.823E-03    0.364E-02
RMM:   9    -0.229960590257E+04   -0.39199E-04   -0.82041E-05  3587   0.792E-03    0.200E-02
RMM:  10    -0.229960593497E+04   -0.32392E-04   -0.48294E-05  3261   0.581E-03    0.157E-02
RMM:  11    -0.229960595353E+04   -0.18568E-04   -0.19122E-05  2889   0.470E-03    0.128E-02
RMM:  12    -0.229960597193E+04   -0.18399E-04   -0.37604E-05  3047   0.463E-03    0.687E-03
RMM:  13    -0.229960597814E+04   -0.62027E-05   -0.10062E-05  2838   0.391E-03
   6 F= -.23199655E+04 E0= -.23199655E+04  d E =-.158734E+00  mag=     2.0000
       N       E                     dE             d eps       ncg     rms          rms(c)
DAV:   1    -0.229949808085E+04    0.10789E+00   -0.16968E+01  4432   0.373E+00    0.111E+00
RMM:   2    -0.229966494162E+04   -0.16686E+00   -0.15546E+00  5989   0.773E-01    0.169E+00
RMM:   3    -0.229964747933E+04    0.17462E-01   -0.10971E-01  5585   0.243E-01    0.930E-01
RMM:   4    -0.229963716925E+04    0.10310E-01   -0.14234E-02  5115   0.665E-02    0.298E-01
RMM:   5    -0.229963631931E+04    0.84993E-03   -0.33466E-03  5386   0.405E-02    0.249E-01
RMM:   6    -0.229963565525E+04    0.66407E-03   -0.25281E-03  5469   0.381E-02    0.101E-01
RMM:   7    -0.229963558127E+04    0.73973E-04   -0.31028E-04  4484   0.168E-02    0.415E-02
RMM:   8    -0.229963558661E+04   -0.53366E-05   -0.60573E-05  3318   0.569E-03
   7 F= -.23199963E+04 E0= -.23199963E+04  d E =-.189480E+00  mag=     2.0000
       N       E                     dE             d eps       ncg     rms          rms(c)
DAV:   1    -0.229921440286E+04    0.42118E+00   -0.42955E+01  4424   0.632E+00    0.204E+00
RMM:   2    -0.229994358550E+04   -0.72918E+00   -0.67237E+00  6137   0.170E+00    0.367E+00
RMM:   3    -0.229981228196E+04    0.13130E+00   -0.44082E-01  5362   0.480E-01    0.149E+00
RMM:   4    -0.229979017587E+04    0.22106E-01   -0.71926E-02  5902   0.135E-01    0.767E-01
RMM:   5    -0.229978475567E+04    0.54202E-02   -0.94779E-03  5601   0.583E-02    0.470E-01
RMM:   6    -0.229978244393E+04    0.23117E-02   -0.92478E-03  5196   0.710E-02    0.193E-01
RMM:   7    -0.229978239482E+04    0.49105E-04   -0.14766E-03  5014   0.352E-02    0.762E-02
RMM:   8    -0.229978239229E+04    0.25351E-05   -0.18640E-04  3844   0.966E-03    0.460E-02
RMM:   9    -0.229978245222E+04   -0.59933E-04   -0.15664E-04  3781   0.970E-03    0.269E-02
RMM:  10    -0.229978249931E+04   -0.47087E-04   -0.52224E-05  3109   0.565E-03    0.208E-02
RMM:  11    -0.229978252471E+04   -0.25402E-04   -0.23226E-05  2892   0.421E-03    0.159E-02
RMM:  12    -0.229978254402E+04   -0.19307E-04   -0.44387E-05  3135   0.455E-03    0.836E-03
RMM:  13    -0.229978255008E+04   -0.60585E-05   -0.81260E-06  2808   0.349E-03
   8 F= -.23201468E+04 E0= -.23201468E+04  d E =-.150527E+00  mag=     2.0000
       N       E                     dE             d eps       ncg     rms          rms(c)
DAV:   1    -0.229909266653E+04    0.68988E+00   -0.56994E+01  4424   0.735E+00    0.235E+00
RMM:   2    -0.230004743900E+04   -0.95477E+00   -0.90109E+00  6149   0.203E+00    0.396E+00
RMM:   3    -0.229988871699E+04    0.15872E+00   -0.57544E-01  5177   0.581E-01    0.172E+00
RMM:   4    -0.229985857806E+04    0.30139E-01   -0.91688E-02  5886   0.158E-01    0.834E-01
RMM:   5    -0.229985170315E+04    0.68749E-02   -0.12068E-02  5780   0.686E-02    0.514E-01
RMM:   6    -0.229984846936E+04    0.32338E-02   -0.10998E-02  5228   0.796E-02    0.175E-01
RMM:   7    -0.229984832884E+04    0.14051E-03   -0.14622E-03  5082   0.377E-02    0.627E-02
RMM:   8    -0.229984827194E+04    0.56899E-04   -0.18138E-04  3891   0.995E-03    0.391E-02
RMM:   9    -0.229984824977E+04    0.22175E-04   -0.10122E-04  3633   0.892E-03    0.122E-02
RMM:  10    -0.229984825082E+04   -0.10571E-05   -0.18980E-05  2872   0.477E-03
   9 F= -.23202164E+04 E0= -.23202164E+04  d E =-.220140E+00  mag=     2.0000
       N       E                     dE             d eps       ncg     rms          rms(c)
DAV:   1    -0.229908375737E+04    0.76449E+00   -0.52503E+01  4424   0.766E+00    0.274E+00
RMM:   2    -0.230022226461E+04   -0.11385E+01   -0.10410E+01  6092   0.215E+00    0.468E+00
RMM:   3    -0.229999275481E+04    0.22951E+00   -0.80104E-01  5204   0.706E-01    0.190E+00
RMM:   4    -0.229995281476E+04    0.39940E-01   -0.11046E-01  5729   0.176E-01    0.879E-01
RMM:   5    -0.229994352677E+04    0.92880E-02   -0.16613E-02  5788   0.859E-02    0.550E-01
RMM:   6    -0.229993878696E+04    0.47398E-02   -0.13414E-02  5243   0.864E-02    0.211E-01
RMM:   7    -0.229993823636E+04    0.55061E-03   -0.18392E-03  5131   0.452E-02    0.712E-02
RMM:   8    -0.229993807757E+04    0.15878E-03   -0.31664E-04  4564   0.130E-02    0.462E-02
RMM:   9    -0.229993798505E+04    0.92527E-04   -0.25768E-04  4630   0.141E-02    0.167E-02
RMM:  10    -0.229993797961E+04    0.54328E-05   -0.65961E-05  3835   0.653E-03
  10 F= -.23203100E+04 E0= -.23203100E+04  d E =-.935578E-01  mag=     2.0000
       N       E                     dE             d eps       ncg     rms          rms(c)
DAV:   1    -0.229993564179E+04    0.23433E-02   -0.18624E-01  5240   0.448E-01    0.160E-01
RMM:   2    -0.229993923606E+04   -0.35943E-02   -0.33748E-02  6229   0.121E-01    0.238E-01
RMM:   3    -0.229993880959E+04    0.42647E-03   -0.24511E-03  4722   0.376E-02    0.116E-01
RMM:   4    -0.229993866395E+04    0.14563E-03   -0.29724E-04  3867   0.935E-03    0.442E-02
RMM:   5    -0.229993865531E+04    0.86451E-05   -0.62155E-05  3422   0.603E-03
  11 F= -.23203104E+04 E0= -.23203104E+04  d E =-.940291E-01  mag=     2.0000
       N       E                     dE             d eps       ncg     rms          rms(c)
DAV:   1    -0.229961507754E+04    0.32359E+00   -0.24763E+01  4400   0.524E+00    0.174E+00
RMM:   2    -0.230016808937E+04   -0.55301E+00   -0.46517E+00  6153   0.136E+00    0.372E+00
RMM:   3    -0.230001168181E+04    0.15641E+00   -0.28381E-01  5589   0.348E-01    0.978E-01
RMM:   4    -0.229999986664E+04    0.11815E-01   -0.38096E-02  5576   0.101E-01    0.492E-01
RMM:   5    -0.229999761434E+04    0.22523E-02   -0.67896E-03  5572   0.532E-02    0.386E-01
RMM:   6    -0.229999558669E+04    0.20277E-02   -0.64422E-03  5376   0.608E-02    0.144E-01
RMM:   7    -0.229999548314E+04    0.10355E-03   -0.74881E-04  4779   0.275E-02    0.415E-02
RMM:   8    -0.229999550597E+04   -0.22836E-04   -0.11348E-04  3677   0.753E-03    0.311E-02
RMM:   9    -0.229999552626E+04   -0.20291E-04   -0.32678E-05  2931   0.589E-03    0.935E-03
RMM:  10    -0.229999553859E+04   -0.12331E-04   -0.14790E-05  2851   0.389E-03    0.465E-03
RMM:  11    -0.229999554825E+04   -0.96595E-05   -0.50709E-06  2779   0.313E-03
  12 F= -.23203688E+04 E0= -.23203688E+04  d E =-.583639E-01  mag=     2.0000
       N       E                     dE             d eps       ncg     rms          rms(c)
DAV:   1    -0.229988058752E+04    0.11495E+00   -0.83188E+00  4400   0.302E+00    0.997E-01
RMM:   2    -0.230005773256E+04   -0.17715E+00   -0.14774E+00  6093   0.769E-01    0.213E+00
RMM:   3    -0.230000832724E+04    0.49405E-01   -0.89205E-02  5537   0.195E-01    0.539E-01
RMM:   4    -0.230000471474E+04    0.36125E-02   -0.11452E-02  5447   0.542E-02    0.272E-01
RMM:   5    -0.230000412612E+04    0.58862E-03   -0.22355E-03  5486   0.310E-02    0.226E-01
RMM:   6    -0.230000344691E+04    0.67921E-03   -0.20624E-03  5441   0.348E-02    0.751E-02
RMM:   7    -0.230000343260E+04    0.14310E-04   -0.21171E-04  4001   0.149E-02    0.230E-02
RMM:   8    -0.230000344556E+04   -0.12959E-04   -0.34161E-05  2980   0.471E-03    0.169E-02
RMM:   9    -0.230000345260E+04   -0.70419E-05   -0.10978E-05  2811   0.355E-03
  13 F= -.23203774E+04 E0= -.23203774E+04  d E =-.669219E-01  mag=     2.0000
       N       E                     dE             d eps       ncg     rms          rms(c)
DAV:   1    -0.229975520458E+04    0.24824E+00   -0.30407E+01  4384   0.584E+00    0.161E+00
RMM:   2    -0.230009305791E+04   -0.33785E+00   -0.34334E+00  6017   0.140E+00    0.177E+00
RMM:   3    -0.230008709817E+04    0.59597E-02   -0.21983E-01  5458   0.346E-01    0.152E+00
RMM:   4    -0.230005996088E+04    0.27137E-01   -0.32078E-02  5470   0.105E-01    0.508E-01
RMM:   5    -0.230005745836E+04    0.25025E-02   -0.66600E-03  5572   0.586E-02    0.355E-01
RMM:   6    -0.230005560174E+04    0.18566E-02   -0.58695E-03  5125   0.636E-02    0.104E-01
RMM:   7    -0.230005552711E+04    0.74627E-04   -0.67883E-04  4937   0.295E-02    0.395E-02
RMM:   8    -0.230005549884E+04    0.28271E-04   -0.83315E-05  3697   0.786E-03    0.253E-02
RMM:   9    -0.230005548153E+04    0.17312E-04   -0.44135E-05  3303   0.694E-03    0.912E-03
RMM:  10    -0.230005547781E+04    0.37239E-05   -0.13989E-05  2840   0.459E-03
  14 F= -.23204298E+04 E0= -.23204298E+04  d E =-.524299E-01  mag=     2.0000
       N       E                     dE             d eps       ncg     rms          rms(c)
DAV:   1    -0.230004028396E+04    0.15198E-01   -0.17736E+00  4624   0.142E+00    0.383E-01
RMM:   2    -0.230005917742E+04   -0.18893E-01   -0.19428E-01  5960   0.326E-01    0.383E-01
RMM:   3    -0.230005953922E+04   -0.36180E-03   -0.11821E-02  5405   0.825E-02    0.381E-01
RMM:   4    -0.230005782423E+04    0.17150E-02   -0.17671E-03  5244   0.250E-02    0.116E-01
RMM:   5    -0.230005770050E+04    0.12373E-03   -0.40443E-04  4918   0.145E-02    0.872E-02
RMM:   6    -0.230005758481E+04    0.11569E-03   -0.34285E-04  4859   0.155E-02    0.204E-02
RMM:   7    -0.230005758123E+04    0.35810E-05   -0.34050E-05  3042   0.753E-03
  15 F= -.23204319E+04 E0= -.23204319E+04  d E =-.545378E-01  mag=     2.0000
       N       E                     dE             d eps       ncg     rms          rms(c)
DAV:   1    -0.229989389151E+04    0.16369E+00   -0.32079E+01  4392   0.582E+00    0.137E+00
RMM:   2    -0.230013759092E+04   -0.24370E+00   -0.24655E+00  5916   0.122E+00    0.150E+00
RMM:   3    -0.230013135038E+04    0.62405E-02   -0.14281E-01  5286   0.307E-01    0.127E+00
RMM:   4    -0.230011143517E+04    0.19915E-01   -0.21312E-02  5356   0.908E-02    0.387E-01
RMM:   5    -0.230011010528E+04    0.13299E-02   -0.60695E-03  5299   0.577E-02    0.303E-01
RMM:   6    -0.230010882912E+04    0.12762E-02   -0.41462E-03  5474   0.527E-02    0.909E-02
RMM:   7    -0.230010875291E+04    0.76210E-04   -0.35903E-04  4873   0.220E-02    0.371E-02
RMM:   8    -0.230010874721E+04    0.56988E-05   -0.61251E-05  3561   0.714E-03
  16 F= -.23204832E+04 E0= -.23204832E+04  d E =-.513248E-01  mag=     2.0000
       N       E                     dE             d eps       ncg     rms          rms(c)
DAV:   1    -0.230008311903E+04    0.25634E-01   -0.45913E+00  4432   0.219E+00    0.514E-01
RMM:   2    -0.230011601205E+04   -0.32893E-01   -0.33851E-01  5888   0.452E-01    0.500E-01
RMM:   3    -0.230011657543E+04   -0.56339E-03   -0.20888E-02  5298   0.125E-01    0.500E-01
RMM:   4    -0.230011351061E+04    0.30648E-02   -0.30829E-03  5331   0.351E-02    0.144E-01
RMM:   5    -0.230011326281E+04    0.24780E-03   -0.93812E-04  4860   0.231E-02    0.974E-02
RMM:   6    -0.230011314342E+04    0.11939E-03   -0.47559E-04  5082   0.192E-02    0.369E-02
RMM:   7    -0.230011312652E+04    0.16902E-04   -0.45878E-05  3252   0.689E-03    0.144E-02
RMM:   8    -0.230011312411E+04    0.24053E-05   -0.10579E-05  2836   0.426E-03
  17 F= -.23204876E+04 E0= -.23204876E+04  d E =-.556660E-01  mag=     2.0000
       N       E                     dE             d eps       ncg     rms          rms(c)
DAV:   1    -0.229995319098E+04    0.15994E+00   -0.34435E+01  4392   0.594E+00    0.143E+00
RMM:   2    -0.230020346049E+04   -0.25027E+00   -0.22930E+00  5856   0.120E+00    0.211E+00
RMM:   3    -0.230016285396E+04    0.40607E-01   -0.15124E-01  5411   0.335E-01    0.101E+00
RMM:   4    -0.230014801306E+04    0.14841E-01   -0.17849E-02  5101   0.872E-02    0.347E-01
RMM:   5    -0.230014540355E+04    0.26095E-02   -0.88027E-03  5054   0.775E-02    0.142E-01
RMM:   6    -0.230014536978E+04    0.33769E-04   -0.14398E-03  5255   0.441E-02    0.821E-02
RMM:   7    -0.230014528981E+04    0.79975E-04   -0.30926E-04  4834   0.130E-02    0.445E-02
RMM:   8    -0.230014527499E+04    0.14823E-04   -0.73387E-05  3983   0.920E-03    0.253E-02
RMM:   9    -0.230014527327E+04    0.17178E-05   -0.36681E-05  3118   0.560E-03
  18 F= -.23205194E+04 E0= -.23205194E+04  d E =-.317872E-01  mag=     2.0000
       N       E                     dE             d eps       ncg     rms          rms(c)
DAV:   1    -0.230014375029E+04    0.15247E-02   -0.34293E-01  4688   0.597E-01    0.142E-01
RMM:   2    -0.230014610883E+04   -0.23585E-02   -0.21866E-02  5903   0.119E-01    0.196E-01
RMM:   3    -0.230014581145E+04    0.29738E-03   -0.14942E-03  5078   0.354E-02    0.106E-01
RMM:   4    -0.230014566261E+04    0.14883E-03   -0.17391E-04  3839   0.919E-03    0.359E-02
RMM:   5    -0.230014564997E+04    0.12642E-04   -0.86191E-05  4038   0.808E-03    0.264E-02
RMM:   6    -0.230014564247E+04    0.74979E-05   -0.27294E-05  2979   0.563E-03
  19 F= -.23205198E+04 E0= -.23205198E+04  d E =-.322021E-01  mag=     2.0000
       N       E                     dE             d eps       ncg     rms          rms(c)
DAV:   1    -0.230001712892E+04    0.12852E+00   -0.19814E+01  4392   0.470E+00    0.108E+00
RMM:   2    -0.230018612287E+04   -0.16899E+00   -0.17532E+00  5982   0.104E+00    0.917E-01
RMM:   3    -0.230019179641E+04   -0.56735E-02   -0.10429E-01  5596   0.260E-01    0.104E+00
RMM:   4    -0.230017860845E+04    0.13188E-01   -0.14700E-02  5612   0.774E-02    0.325E-01
RMM:   5    -0.230017751704E+04    0.10914E-02   -0.37172E-03  4978   0.437E-02    0.225E-01
RMM:   6    -0.230017690307E+04    0.61397E-03   -0.25708E-03  5282   0.443E-02    0.799E-02
RMM:   7    -0.230017682552E+04    0.77552E-04   -0.25557E-04  4684   0.182E-02    0.301E-02
RMM:   8    -0.230017681397E+04    0.11552E-04   -0.41877E-05  3162   0.519E-03    0.200E-02
RMM:   9    -0.230017680727E+04    0.66912E-05   -0.20142E-05  2865   0.483E-03
  20 F= -.23205498E+04 E0= -.23205498E+04  d E =-.299907E-01  mag=     2.0000
       N       E                     dE             d eps       ncg     rms          rms(c)
DAV:   1    -0.230015632458E+04    0.20489E-01   -0.30161E+00  4400   0.183E+00    0.419E-01
RMM:   2    -0.230018160404E+04   -0.25279E-01   -0.26280E-01  5973   0.400E-01    0.340E-01
RMM:   3    -0.230018267416E+04   -0.10701E-02   -0.15157E-02  5574   0.103E-01    0.403E-01
RMM:   4    -0.230018068075E+04    0.19934E-02   -0.21809E-03  5433   0.301E-02    0.124E-01
RMM:   5    -0.230018049451E+04    0.18624E-03   -0.62794E-04  4692   0.184E-02    0.772E-02
RMM:   6    -0.230018042965E+04    0.64854E-04   -0.32415E-04  4826   0.164E-02    0.316E-02
RMM:   7    -0.230018041494E+04    0.14718E-04   -0.32755E-05  3025   0.636E-03    0.116E-02
RMM:   8    -0.230018041352E+04    0.14147E-05   -0.77811E-06  2832   0.359E-03
  21 F= -.23205528E+04 E0= -.23205528E+04  d E =-.330592E-01  mag=     2.0000
       N       E                     dE             d eps       ncg     rms          rms(c)
DAV:   1    -0.230002977313E+04    0.15064E+00   -0.17184E+01  4392   0.441E+00    0.113E+00
RMM:   2    -0.230023029133E+04   -0.20052E+00   -0.20077E+00  6034   0.103E+00    0.128E+00
RMM:   3    -0.230022563256E+04    0.46588E-02   -0.13463E-01  5552   0.271E-01    0.968E-01
RMM:   4    -0.230021382194E+04    0.11811E-01   -0.15338E-02  5533   0.727E-02    0.307E-01
RMM:   5    -0.230021291502E+04    0.90691E-03   -0.35777E-03  5293   0.405E-02    0.243E-01
RMM:   6    -0.230021208895E+04    0.82608E-03   -0.28069E-03  5504   0.424E-02    0.740E-02
RMM:   7    -0.230021202841E+04    0.60538E-04   -0.21642E-04  4433   0.172E-02    0.281E-02
RMM:   8    -0.230021201086E+04    0.17544E-04   -0.28683E-05  2957   0.544E-03    0.181E-02
RMM:   9    -0.230021200038E+04    0.10484E-04   -0.27176E-05  2984   0.462E-03    0.556E-03
RMM:  10    -0.230021199819E+04    0.21941E-05   -0.76128E-06  2816   0.365E-03
  22 F= -.23205832E+04 E0= -.23205832E+04  d E =-.303784E-01  mag=     2.0000
       N       E                     dE             d eps       ncg     rms          rms(c)
DAV:   1    -0.230006350165E+04    0.14850E+00   -0.15101E+01  4392   0.411E+00    0.105E+00
RMM:   2    -0.230023768307E+04   -0.17418E+00   -0.17524E+00  6010   0.963E-01    0.115E+00
RMM:   3    -0.230023477083E+04    0.29122E-02   -0.11567E-01  5555   0.250E-01    0.913E-01
RMM:   4    -0.230022431641E+04    0.10454E-01   -0.13503E-02  5558   0.677E-02    0.286E-01
RMM:   5    -0.230022350569E+04    0.81072E-03   -0.31583E-03  5235   0.377E-02    0.225E-01
RMM:   6    -0.230022278916E+04    0.71653E-03   -0.24040E-03  5500   0.392E-02    0.696E-02
RMM:   7    -0.230022273160E+04    0.57557E-04   -0.18489E-04  4413   0.157E-02    0.262E-02
RMM:   8    -0.230022271490E+04    0.16702E-04   -0.24948E-05  2931   0.512E-03    0.171E-02
RMM:   9    -0.230022270414E+04    0.10766E-04   -0.24447E-05  2943   0.440E-03    0.535E-03
RMM:  10    -0.230022270182E+04    0.23189E-05   -0.74974E-06  2813   0.359E-03
  23 F= -.23205925E+04 E0= -.23205925E+04  d E =-.396583E-01  mag=     2.0000
       N       E                     dE             d eps       ncg     rms          rms(c)
DAV:   1    -0.230013372511E+04    0.88979E-01   -0.91258E+00  4424   0.313E+00    0.823E-01
RMM:   2    -0.230026425878E+04   -0.13053E+00   -0.12500E+00  6082   0.752E-01    0.124E+00
RMM:   3    -0.230025112117E+04    0.13138E-01   -0.86232E-02  5514   0.206E-01    0.566E-01
RMM:   4    -0.230024717213E+04    0.39490E-02   -0.90945E-03  5470   0.480E-02    0.222E-01
RMM:   5    -0.230024665425E+04    0.51788E-03   -0.20923E-03  4982   0.293E-02    0.173E-01
RMM:   6    -0.230024625484E+04    0.39941E-03   -0.13138E-03  5562   0.282E-02    0.574E-02
RMM:   7    -0.230024622545E+04    0.29386E-04   -0.11427E-04  3571   0.958E-03    0.220E-02
RMM:   8    -0.230024622003E+04    0.54213E-05   -0.15816E-05  2863   0.453E-03
  24 F= -.23206150E+04 E0= -.23206150E+04  d E =-.225308E-01  mag=     2.0000
       N       E                     dE             d eps       ncg     rms          rms(c)
DAV:   1    -0.229970486327E+04    0.54136E+00   -0.45213E+01  4392   0.697E+00    0.185E+00
RMM:   2    -0.230037349946E+04   -0.66864E+00   -0.64156E+00  6132   0.172E+00    0.280E+00
RMM:   3    -0.230030004138E+04    0.73458E-01   -0.44055E-01  5588   0.448E-01    0.129E+00
RMM:   4    -0.230027902022E+04    0.21021E-01   -0.46255E-02  5652   0.113E-01    0.513E-01
RMM:   5    -0.230027673284E+04    0.22874E-02   -0.89077E-03  5347   0.599E-02    0.412E-01
RMM:   6    -0.230027436514E+04    0.23677E-02   -0.79831E-03  5587   0.668E-02    0.144E-01
RMM:   7    -0.230027417210E+04    0.19305E-03   -0.75572E-04  4826   0.273E-02    0.540E-02
RMM:   8    -0.230027413842E+04    0.33681E-04   -0.94499E-05  3490   0.894E-03    0.342E-02
RMM:   9    -0.230027412654E+04    0.11881E-04   -0.65425E-05  3393   0.664E-03    0.978E-03
RMM:  10    -0.230027412711E+04   -0.56881E-06   -0.12086E-05  2856   0.413E-03
  25 F= -.23206402E+04 E0= -.23206402E+04  d E =-.477156E-01  mag=     2.0000
       N       E                     dE             d eps       ncg     rms          rms(c)
DAV:   1    -0.230024288994E+04    0.31237E-01   -0.27086E+00  4592   0.171E+00    0.441E-01
RMM:   2    -0.230028000090E+04   -0.37111E-01   -0.36186E-01  6078   0.408E-01    0.607E-01
RMM:   3    -0.230027754953E+04    0.24514E-02   -0.26252E-02  5459   0.119E-01    0.323E-01
RMM:   4    -0.230027628960E+04    0.12599E-02   -0.26290E-03  5274   0.264E-02    0.119E-01
RMM:   5    -0.230027606237E+04    0.22723E-03   -0.64254E-04  4602   0.177E-02    0.647E-02
RMM:   6    -0.230027603161E+04    0.30755E-04   -0.25217E-04  4411   0.150E-02    0.329E-02
RMM:   7    -0.230027601789E+04    0.13726E-04   -0.31428E-05  2992   0.508E-03    0.116E-02
RMM:   8    -0.230027601673E+04    0.11561E-05   -0.54653E-06  2832   0.346E-03
  26 F= -.23206413E+04 E0= -.23206413E+04  d E =-.488369E-01  mag=     2.0000
       N       E                     dE             d eps       ncg     rms          rms(c)
DAV:   1    -0.230006354643E+04    0.21247E+00   -0.16226E+01  4424   0.419E+00    0.118E+00
RMM:   2    -0.230032635553E+04   -0.26281E+00   -0.26511E+00  6132   0.109E+00    0.138E+00
RMM:   3    -0.230031936035E+04    0.69952E-02   -0.18742E-01  5514   0.292E-01    0.961E-01
RMM:   4    -0.230030839772E+04    0.10963E-01   -0.19855E-02  5702   0.729E-02    0.331E-01
RMM:   5    -0.230030737029E+04    0.10274E-02   -0.38960E-03  5212   0.381E-02    0.247E-01
RMM:   6    -0.230030659536E+04    0.77493E-03   -0.27839E-03  5580   0.402E-02    0.890E-02
RMM:   7    -0.230030651383E+04    0.81528E-04   -0.27255E-04  4607   0.154E-02    0.316E-02
RMM:   8    -0.230030649986E+04    0.13968E-04   -0.33057E-05  2930   0.613E-03    0.207E-02
RMM:   9    -0.230030649147E+04    0.83917E-05   -0.24764E-05  2883   0.434E-03
  27 F= -.23206698E+04 E0= -.23206698E+04  d E =-.284942E-01  mag=     2.0000
       N       E                     dE             d eps       ncg     rms          rms(c)
DAV:   1    -0.230001429113E+04    0.29221E+00   -0.20495E+01  4424   0.470E+00    0.132E+00
RMM:   2    -0.230034752404E+04   -0.33323E+00   -0.33709E+00  6130   0.123E+00    0.154E+00
RMM:   3    -0.230033846351E+04    0.90605E-02   -0.23598E-01  5564   0.323E-01    0.107E+00
RMM:   4    -0.230032484839E+04    0.13615E-01   -0.25142E-02  5748   0.818E-02    0.375E-01
RMM:   5    -0.230032352960E+04    0.13188E-02   -0.49294E-03  5202   0.423E-02    0.280E-01
RMM:   6    -0.230032251941E+04    0.10102E-02   -0.35757E-03  5595   0.449E-02    0.101E-01
RMM:   7    -0.230032241072E+04    0.10869E-03   -0.35118E-04  4795   0.175E-02    0.361E-02
RMM:   8    -0.230032239226E+04    0.18453E-04   -0.45925E-05  2988   0.683E-03    0.229E-02
RMM:   9    -0.230032238188E+04    0.10381E-04   -0.29948E-05  2938   0.479E-03    0.761E-03
RMM:  10    -0.230032238051E+04    0.13757E-05   -0.96373E-06  2841   0.373E-03
  28 F= -.23206832E+04 E0= -.23206832E+04  d E =-.418647E-01  mag=     2.0000
       N       E                     dE             d eps       ncg     rms          rms(c)
DAV:   1    -0.230006809037E+04    0.25429E+00   -0.18870E+01  4456   0.436E+00    0.126E+00
RMM:   2    -0.230038194648E+04   -0.31386E+00   -0.31899E+00  6080   0.114E+00    0.148E+00
RMM:   3    -0.230037249565E+04    0.94508E-02   -0.23055E-01  5485   0.322E-01    0.102E+00
RMM:   4    -0.230036042506E+04    0.12071E-01   -0.23996E-02  5771   0.772E-02    0.358E-01
RMM:   5    -0.230035893107E+04    0.14940E-02   -0.48549E-03  5134   0.407E-02    0.247E-01
RMM:   6    -0.230035823844E+04    0.69263E-03   -0.29993E-03  5553   0.410E-02    0.105E-01
RMM:   7    -0.230035809774E+04    0.14070E-03   -0.30478E-04  4753   0.150E-02    0.353E-02
RMM:   8    -0.230035808031E+04    0.17437E-04   -0.49797E-05  2968   0.665E-03    0.211E-02
RMM:   9    -0.230035807232E+04    0.79823E-05   -0.24316E-05  2875   0.456E-03
  29 F= -.23207164E+04 E0= -.23207164E+04  d E =-.332048E-01  mag=     2.0000
       N       E                     dE             d eps       ncg     rms          rms(c)
DAV:   1    -0.229981733407E+04    0.54075E+00   -0.36075E+01  4456   0.603E+00    0.175E+00
RMM:   2    -0.230042736021E+04   -0.61003E+00   -0.61876E+00  6123   0.160E+00    0.210E+00
RMM:   3    -0.230040487102E+04    0.22489E-01   -0.48081E-01  5602   0.439E-01    0.136E+00
RMM:   4    -0.230038340861E+04    0.21462E-01   -0.47532E-02  5762   0.107E-01    0.506E-01
RMM:   5    -0.230038062535E+04    0.27833E-02   -0.90014E-03  5198   0.547E-02    0.364E-01
RMM:   6    -0.230037902821E+04    0.15971E-02   -0.66492E-03  5605   0.588E-02    0.155E-01
RMM:   7    -0.230037873125E+04    0.29696E-03   -0.64708E-04  5245   0.227E-02    0.551E-02
RMM:   8    -0.230037868827E+04    0.42982E-04   -0.12684E-04  3612   0.902E-03    0.298E-02
RMM:   9    -0.230037867133E+04    0.16946E-04   -0.47750E-05  3163   0.585E-03    0.127E-02
RMM:  10    -0.230037867037E+04    0.96057E-06   -0.15885E-05  2862   0.448E-03
  30 F= -.23207333E+04 E0= -.23207333E+04  d E =-.500894E-01  mag=     2.0000
       N       E                     dE             d eps       ncg     rms          rms(c)
DAV:   1    -0.230029047560E+04    0.88196E-01   -0.77975E+00  4456   0.271E+00    0.737E-01
RMM:   2    -0.230040745196E+04   -0.11698E+00   -0.11989E+00  6094   0.673E-01    0.848E-01
RMM:   3    -0.230040656681E+04    0.88514E-03   -0.95040E-02  5483   0.217E-01    0.598E-01
RMM:   4    -0.230040261646E+04    0.39504E-02   -0.93222E-03  5600   0.454E-02    0.222E-01
RMM:   5    -0.230040177652E+04    0.83995E-03   -0.17267E-03  5270   0.262E-02    0.986E-02
RMM:   6    -0.230040173203E+04    0.44487E-04   -0.57806E-04  4986   0.196E-02    0.434E-02
RMM:   7    -0.230040171642E+04    0.15609E-04   -0.72559E-05  3226   0.766E-03    0.226E-02
RMM:   8    -0.230040171365E+04    0.27702E-05   -0.19156E-05  2905   0.430E-03
  31 F= -.23207548E+04 E0= -.23207548E+04  d E =-.215213E-01  mag=     2.0000
       N       E                     dE             d eps       ncg     rms          rms(c)
DAV:   1    -0.229941419220E+04    0.98752E+00   -0.69949E+01  4456   0.813E+00    0.228E+00
RMM:   2    -0.230056690235E+04   -0.11527E+01   -0.11574E+01  6209   0.210E+00    0.306E+00
RMM:   3    -0.230049120992E+04    0.75692E-01   -0.95378E-01  5806   0.579E-01    0.163E+00
RMM:   4    -0.230046134324E+04    0.29867E-01   -0.90428E-02  5852   0.136E-01    0.692E-01
RMM:   5    -0.230045584433E+04    0.54989E-02   -0.13821E-02  5114   0.653E-02    0.490E-01
RMM:   6    -0.230045326618E+04    0.25781E-02   -0.12784E-02  5674   0.770E-02    0.235E-01
RMM:   7    -0.230045270557E+04    0.56061E-03   -0.13366E-03  5435   0.300E-02    0.894E-02
RMM:   8    -0.230045263085E+04    0.74721E-04   -0.30252E-04  3783   0.120E-02    0.449E-02
RMM:   9    -0.230045262480E+04    0.60443E-05   -0.79343E-05  3158   0.678E-03
  32 F= -.23208010E+04 E0= -.23208010E+04  d E =-.677252E-01  mag=     2.0000
       N       E                     dE             d eps       ncg     rms          rms(c)
DAV:   1    -0.229599258881E+04    0.44600E+01   -0.27811E+02  4448   0.163E+01    0.505E+00
RMM:   2    -0.230204550774E+04   -0.60529E+01   -0.53019E+01  6321   0.448E+00    0.125E+01
RMM:   3    -0.230066677852E+04    0.13787E+01   -0.48035E+00  5758   0.124E+00    0.395E+00
RMM:   4    -0.230048260099E+04    0.18418E+00   -0.51919E-01  5955   0.354E-01    0.204E+00
RMM:   5    -0.230047560835E+04    0.69926E-02   -0.73288E-02  5305   0.142E-01    0.149E+00
RMM:   6    -0.230045392567E+04    0.21683E-01   -0.70307E-02  5265   0.159E-01    0.657E-01
RMM:   7    -0.230045402481E+04   -0.99143E-04   -0.23327E-02  4989   0.103E-01    0.529E-01
RMM:   8    -0.230045369137E+04    0.33344E-03   -0.43287E-03  5274   0.497E-02    0.303E-01
RMM:   9    -0.230045316926E+04    0.52210E-03   -0.11732E-03  4630   0.209E-02    0.168E-01
RMM:  10    -0.230045330346E+04   -0.13419E-03   -0.45448E-04  3916   0.149E-02    0.634E-02
RMM:  11    -0.230045345396E+04   -0.15050E-03   -0.16738E-04  3592   0.810E-03    0.272E-02
RMM:  12    -0.230045350060E+04   -0.46646E-04   -0.45536E-05  2969   0.601E-03    0.122E-02
RMM:  13    -0.230045352533E+04   -0.24724E-04   -0.22237E-05  2859   0.424E-03    0.689E-03
RMM:  14    -0.230045353910E+04   -0.13772E-04   -0.58316E-06  2809   0.328E-03    0.439E-03
RMM:  15    -0.230045355198E+04   -0.12886E-04   -0.44872E-06  2773   0.226E-03    0.249E-03
RMM:  16    -0.230045355940E+04   -0.74134E-05   -0.24735E-06  2644   0.215E-03
  33 F= -.23207922E+04 E0= -.23207922E+04  d E =-.589396E-01  mag=     1.9989
       N       E                     dE             d eps       ncg     rms          rms(c)
DAV:   1    -0.229902725502E+04    0.14263E+01   -0.96373E+01  4456   0.949E+00    0.256E+00
RMM:   2    -0.230043717740E+04   -0.14099E+01   -0.15211E+01  6257   0.239E+00    0.148E+00
RMM:   3    -0.230050326829E+04   -0.66091E-01   -0.12658E+00  5351   0.752E-01    0.171E+00
RMM:   4    -0.230048639368E+04    0.16875E-01   -0.12782E-01  6078   0.152E-01    0.999E-01
RMM:   5    -0.230047755994E+04    0.88337E-02   -0.14236E-02  5668   0.715E-02    0.648E-01
RMM:   6    -0.230047168371E+04    0.58762E-02   -0.21926E-02  5143   0.818E-02    0.282E-01
RMM:   7    -0.230047108588E+04    0.59783E-03   -0.40373E-03  5415   0.474E-02    0.165E-01
RMM:   8    -0.230047081385E+04    0.27204E-03   -0.78369E-04  4905   0.171E-02    0.965E-02
RMM:   9    -0.230047072455E+04    0.89295E-04   -0.32644E-04  3497   0.138E-02    0.431E-02
RMM:  10    -0.230047074327E+04   -0.18718E-04   -0.10862E-04  3455   0.596E-03    0.199E-02
RMM:  11    -0.230047077060E+04   -0.27334E-04   -0.20318E-05  2859   0.481E-03    0.742E-03
RMM:  12    -0.230047078283E+04   -0.12224E-04   -0.63388E-06  2815   0.298E-03    0.524E-03
RMM:  13    -0.230047079110E+04   -0.82714E-05   -0.33268E-06  2771   0.232E-03
  34 F= -.23208152E+04 E0= -.23208152E+04  d E =-.818908E-01  mag=     1.9999
       N       E                     dE             d eps       ncg     rms          rms(c)
DAV:   1    -0.230041400032E+04    0.56783E-01   -0.90400E+00  4456   0.295E+00    0.866E-01
RMM:   2    -0.230050831096E+04   -0.94311E-01   -0.10213E+00  5893   0.666E-01    0.482E-01
RMM:   3    -0.230051135178E+04   -0.30408E-02   -0.81008E-02  5492   0.214E-01    0.549E-01
RMM:   4    -0.230050875193E+04    0.25998E-02   -0.91994E-03  5867   0.501E-02    0.292E-01
RMM:   5    -0.230050780073E+04    0.95120E-03   -0.27490E-03  5655   0.367E-02    0.178E-01
RMM:   6    -0.230050737921E+04    0.42152E-03   -0.11483E-03  5581   0.228E-02    0.775E-02
RMM:   7    -0.230050729618E+04    0.83026E-04   -0.19985E-04  4712   0.114E-02    0.337E-02
RMM:   8    -0.230050727199E+04    0.24185E-04   -0.37089E-05  2951   0.607E-03    0.149E-02
RMM:   9    -0.230050726088E+04    0.11115E-04   -0.18148E-05  2881   0.450E-03    0.783E-03
RMM:  10    -0.230050725637E+04    0.45068E-05   -0.97976E-06  2806   0.389E-03
  35 F= -.23208510E+04 E0= -.23208510E+04  d E =-.358812E-01  mag=     2.0000
       N       E                     dE             d eps       ncg     rms          rms(c)
DAV:   1    -0.230047656292E+04    0.30698E-01   -0.36527E+00  4496   0.187E+00    0.549E-01
RMM:   2    -0.230051417129E+04   -0.37608E-01   -0.40872E-01  5891   0.421E-01    0.292E-01
RMM:   3    -0.230051528220E+04   -0.11109E-02   -0.33240E-02  5495   0.136E-01    0.304E-01
RMM:   4    -0.230051464504E+04    0.63717E-03   -0.36820E-03  5593   0.309E-02    0.194E-01
RMM:   5    -0.230051423535E+04    0.40969E-03   -0.11081E-03  5511   0.235E-02    0.117E-01
RMM:   6    -0.230051403914E+04    0.19620E-03   -0.47220E-04  5138   0.149E-02    0.460E-02
RMM:   7    -0.230051400890E+04    0.30243E-04   -0.75716E-05  3679   0.802E-03    0.207E-02
RMM:   8    -0.230051399895E+04    0.99559E-05   -0.16433E-05  2837   0.472E-03
  36 F= -.23208574E+04 E0= -.23208574E+04  d E =-.422493E-01  mag=     2.0000
       N       E                     dE             d eps       ncg     rms          rms(c)
DAV:   1    -0.230051096354E+04    0.30454E-02   -0.20985E+00  4448   0.144E+00    0.398E-01
RMM:   2    -0.230052868427E+04   -0.17721E-01   -0.19271E-01  5934   0.309E-01    0.193E-01
RMM:   3    -0.230052873529E+04   -0.51023E-04   -0.14549E-02  5589   0.901E-02    0.161E-01
RMM:   4    -0.230052876469E+04   -0.29399E-04   -0.16711E-03  5218   0.234E-02    0.168E-01
RMM:   5    -0.230052846519E+04    0.29951E-03   -0.48532E-04  4903   0.155E-02    0.736E-02
RMM:   6    -0.230052840158E+04    0.63600E-04   -0.22383E-04  4589   0.113E-02    0.324E-02
RMM:   7    -0.230052838844E+04    0.13141E-04   -0.36270E-05  3008   0.660E-03    0.124E-02
RMM:   8    -0.230052838666E+04    0.17841E-05   -0.85500E-06  2821   0.366E-03
  37 F= -.23208718E+04 E0= -.23208718E+04  d E =-.143732E-01  mag=     2.0000
       N       E                     dE             d eps       ncg     rms          rms(c)
DAV:   1    -0.230048643890E+04    0.41950E-01   -0.61614E+00  4396   0.247E+00    0.683E-01
RMM:   2    -0.230053851443E+04   -0.52076E-01   -0.56673E-01  5936   0.533E-01    0.333E-01
RMM:   3    -0.230053876733E+04   -0.25289E-03   -0.41671E-02  5625   0.153E-01    0.286E-01
RMM:   4    -0.230053871189E+04    0.55432E-04   -0.48828E-03  5646   0.401E-02    0.277E-01
RMM:   5    -0.230053785337E+04    0.85852E-03   -0.13851E-03  5347   0.258E-02    0.126E-01
RMM:   6    -0.230053765105E+04    0.20232E-03   -0.68249E-04  5232   0.185E-02    0.560E-02
RMM:   7    -0.230053760354E+04    0.47510E-04   -0.11254E-04  4089   0.103E-02    0.228E-02
RMM:   8    -0.230053759111E+04    0.12432E-04   -0.24152E-05  2907   0.470E-03    0.106E-02
RMM:   9    -0.230053758732E+04    0.37894E-05   -0.10036E-05  2827   0.372E-03
  38 F= -.23208810E+04 E0= -.23208810E+04  d E =-.235374E-01  mag=     2.0000
       N       E                     dE             d eps       ncg     rms          rms(c)
DAV:   1    -0.230053513273E+04    0.24584E-02   -0.20929E+00  4432   0.146E+00    0.345E-01
RMM:   2    -0.230055129699E+04   -0.16164E-01   -0.17478E-01  5916   0.304E-01    0.181E-01
RMM:   3    -0.230055163525E+04   -0.33826E-03   -0.13625E-02  5515   0.925E-02    0.185E-01
RMM:   4    -0.230055143130E+04    0.20394E-03   -0.14247E-03  5012   0.206E-02    0.115E-01
RMM:   5    -0.230055126568E+04    0.16563E-03   -0.40437E-04  4922   0.153E-02    0.635E-02
RMM:   6    -0.230055122913E+04    0.36544E-04   -0.16932E-04  4488   0.105E-02    0.268E-02
RMM:   7    -0.230055122224E+04    0.68914E-05   -0.26515E-05  2889   0.538E-03
  39 F= -.23208941E+04 E0= -.23208941E+04  d E =-.131058E-01  mag=     2.0000
       N       E                     dE             d eps       ncg     rms          rms(c)
DAV:   1    -0.230042886518E+04    0.12236E+00   -0.18820E+01  4392   0.439E+00    0.104E+00
RMM:   2    -0.230057446088E+04   -0.14560E+00   -0.15687E+00  5881   0.909E-01    0.600E-01
RMM:   3    -0.230058028985E+04   -0.58290E-02   -0.14074E-01  5435   0.314E-01    0.694E-01
RMM:   4    -0.230057605989E+04    0.42300E-02   -0.13497E-02  5859   0.651E-02    0.327E-01
RMM:   5    -0.230057474601E+04    0.13139E-02   -0.37108E-03  5420   0.444E-02    0.189E-01
RMM:   6    -0.230057445151E+04    0.29450E-03   -0.15490E-03  5638   0.290E-02    0.969E-02
RMM:   7    -0.230057434735E+04    0.10416E-03   -0.31420E-04  4831   0.134E-02    0.372E-02
RMM:   8    -0.230057433492E+04    0.12429E-04   -0.36063E-05  2915   0.586E-03    0.200E-02
RMM:   9    -0.230057433200E+04    0.29173E-05   -0.18784E-05  2856   0.440E-03
  40 F= -.23209155E+04 E0= -.23209155E+04  d E =-.345946E-01  mag=     2.0000
       N       E                     dE             d eps       ncg     rms          rms(c)
DAV:   1    -0.230056576370E+04    0.85712E-02   -0.13075E+00  4592   0.115E+00    0.272E-01
RMM:   2    -0.230057583634E+04   -0.10073E-01   -0.10900E-01  5922   0.240E-01    0.136E-01
RMM:   3    -0.230057598953E+04   -0.15318E-03   -0.83279E-03  5464   0.729E-02    0.127E-01
RMM:   4    -0.230057594011E+04    0.49421E-04   -0.86947E-04  4459   0.158E-02    0.963E-02
RMM:   5    -0.230057582632E+04    0.11379E-03   -0.26915E-04  4755   0.127E-02    0.514E-02
RMM:   6    -0.230057580205E+04    0.24268E-04   -0.10121E-04  3965   0.847E-03    0.211E-02
RMM:   7    -0.230057579773E+04    0.43223E-05   -0.17776E-05  2862   0.494E-03
  41 F= -.23209166E+04 E0= -.23209166E+04  d E =-.356250E-01  mag=     2.0000
       N       E                     dE             d eps       ncg     rms          rms(c)
DAV:   1    -0.230054222089E+04    0.33581E-01   -0.66557E+00  4400   0.265E+00    0.655E-01
RMM:   2    -0.230059487510E+04   -0.52654E-01   -0.56914E-01  5906   0.565E-01    0.306E-01
RMM:   3    -0.230059536190E+04   -0.48679E-03   -0.42414E-02  5538   0.170E-01    0.292E-01
RMM:   4    -0.230059523037E+04    0.13153E-03   -0.47149E-03  5809   0.381E-02    0.250E-01
RMM:   5    -0.230059436110E+04    0.86927E-03   -0.11516E-03  4992   0.260E-02    0.747E-02
RMM:   6    -0.230059431993E+04    0.41169E-04   -0.36416E-04  4620   0.173E-02    0.254E-02
RMM:   7    -0.230059431395E+04    0.59834E-05   -0.42116E-05  3259   0.694E-03
  42 F= -.23209342E+04 E0= -.23209342E+04  d E =-.176464E-01  mag=     2.0000
       N       E                     dE             d eps       ncg     rms          rms(c)
DAV:   1    -0.230053011541E+04    0.64205E-01   -0.89538E+00  4400   0.307E+00    0.758E-01
RMM:   2    -0.230060087733E+04   -0.70762E-01   -0.76478E-01  5899   0.653E-01    0.354E-01
RMM:   3    -0.230060157067E+04   -0.69334E-03   -0.57946E-02  5548   0.195E-01    0.336E-01
RMM:   4    -0.230060141700E+04    0.15367E-03   -0.63337E-03  5877   0.438E-02    0.291E-01
RMM:   5    -0.230060023485E+04    0.11822E-02   -0.15589E-03  5012   0.300E-02    0.866E-02
RMM:   6    -0.230060017345E+04    0.61399E-04   -0.49302E-04  4650   0.200E-02    0.308E-02
RMM:   7    -0.230060016285E+04    0.10599E-04   -0.65388E-05  3564   0.807E-03    0.194E-02
RMM:   8    -0.230060015463E+04    0.82163E-05   -0.22216E-05  2853   0.553E-03
  43 F= -.23209390E+04 E0= -.23209390E+04  d E =-.224610E-01  mag=     2.0000
       N       E                     dE             d eps       ncg     rms          rms(c)
DAV:   1    -0.230057190795E+04    0.28255E-01   -0.58485E+00  4432   0.241E+00    0.531E-01
RMM:   2    -0.230061543817E+04   -0.43530E-01   -0.46529E-01  5989   0.497E-01    0.293E-01
RMM:   3    -0.230061526990E+04    0.16828E-03   -0.29385E-02  5681   0.123E-01    0.295E-01
RMM:   4    -0.230061477760E+04    0.49230E-03   -0.35346E-03  5703   0.325E-02    0.208E-01
RMM:   5    -0.230061429035E+04    0.48725E-03   -0.79791E-04  4938   0.201E-02    0.102E-01
RMM:   6    -0.230061419817E+04    0.92180E-04   -0.54794E-04  5153   0.174E-02    0.517E-02
RMM:   7    -0.230061416835E+04    0.29819E-04   -0.86231E-05  3542   0.875E-03    0.194E-02
RMM:   8    -0.230061416615E+04    0.22065E-05   -0.15227E-05  2832   0.443E-03
  44 F= -.23209525E+04 E0= -.23209525E+04  d E =-.135118E-01  mag=     2.0000
       N       E                     dE             d eps       ncg     rms          rms(c)
DAV:   1    -0.230043686791E+04    0.17730E+00   -0.26204E+01  4392   0.509E+00    0.113E+00
RMM:   2    -0.230063255861E+04   -0.19569E+00   -0.20929E+00  5991   0.105E+00    0.617E-01
RMM:   3    -0.230063112902E+04    0.14296E-02   -0.13924E-01  5643   0.275E-01    0.570E-01
RMM:   4    -0.230062988172E+04    0.12473E-02   -0.15995E-02  6004   0.689E-02    0.455E-01
RMM:   5    -0.230062747257E+04    0.24092E-02   -0.36501E-03  5137   0.418E-02    0.214E-01
RMM:   6    -0.230062708986E+04    0.38271E-03   -0.24263E-03  5421   0.356E-02    0.114E-01
RMM:   7    -0.230062692916E+04    0.16070E-03   -0.43423E-04  5181   0.182E-02    0.439E-02
RMM:   8    -0.230062691291E+04    0.16250E-04   -0.67321E-05  3146   0.696E-03    0.204E-02
RMM:   9    -0.230062691282E+04    0.89756E-07   -0.22104E-05  2894   0.475E-03
  45 F= -.23209642E+04 E0= -.23209642E+04  d E =-.251625E-01  mag=     2.0000
       N       E                     dE             d eps       ncg     rms          rms(c)
DAV:   1    -0.230062295344E+04    0.39595E-02   -0.32887E+00  4464   0.182E+00    0.492E-01
RMM:   2    -0.230064286029E+04   -0.19907E-01   -0.21758E-01  5893   0.361E-01    0.259E-01
RMM:   3    -0.230064299690E+04   -0.13661E-03   -0.15677E-02  5257   0.989E-02    0.252E-01
RMM:   4    -0.230064254662E+04    0.45028E-03   -0.20800E-03  5254   0.299E-02    0.168E-01
RMM:   5    -0.230064233472E+04    0.21190E-03   -0.92647E-04  5409   0.225E-02    0.126E-01
RMM:   6    -0.230064212352E+04    0.21120E-03   -0.42891E-04  5235   0.161E-02    0.302E-02
RMM:   7    -0.230064211818E+04    0.53436E-05   -0.49278E-05  3132   0.802E-03
  46 F= -.23209790E+04 E0= -.23209790E+04  d E =-.147516E-01  mag=     2.0000
       N       E                     dE             d eps       ncg     rms          rms(c)
DAV:   1    -0.230063442604E+04    0.76975E-02   -0.18728E+00  4448   0.137E+00    0.373E-01
RMM:   2    -0.230064577486E+04   -0.11349E-01   -0.12400E-01  5893   0.273E-01    0.196E-01
RMM:   3    -0.230064586210E+04   -0.87236E-04   -0.89735E-03  5255   0.739E-02    0.190E-01
RMM:   4    -0.230064560875E+04    0.25335E-03   -0.11875E-03  4996   0.227E-02    0.127E-01
RMM:   5    -0.230064548897E+04    0.11978E-03   -0.53799E-04  5201   0.173E-02    0.960E-02
RMM:   6    -0.230064536453E+04    0.12444E-03   -0.24825E-04  4868   0.125E-02    0.226E-02
RMM:   7    -0.230064536131E+04    0.32243E-05   -0.29682E-05  2957   0.661E-03
  47 F= -.23209818E+04 E0= -.23209818E+04  d E =-.176463E-01  mag=     2.0000
       N       E                     dE             d eps       ncg     rms          rms(c)
DAV:   1    -0.230062900926E+04    0.16355E-01   -0.38209E+00  4428   0.201E+00    0.492E-01
RMM:   2    -0.230065841598E+04   -0.29407E-01   -0.31703E-01  5900   0.403E-01    0.246E-01
RMM:   3    -0.230065910523E+04   -0.68925E-03   -0.26203E-02  5431   0.124E-01    0.173E-01
RMM:   4    -0.230065934568E+04   -0.24045E-03   -0.29597E-03  5579   0.314E-02    0.218E-01
RMM:   5    -0.230065884758E+04    0.49810E-03   -0.90402E-04  5223   0.216E-02    0.938E-02
RMM:   6    -0.230065875681E+04    0.90773E-04   -0.31128E-04  4694   0.125E-02    0.422E-02
RMM:   7    -0.230065873665E+04    0.20164E-04   -0.60114E-05  3390   0.740E-03    0.185E-02
RMM:   8    -0.230065873412E+04    0.25249E-05   -0.13909E-05  2853   0.427E-03
  48 F= -.23209943E+04 E0= -.23209943E+04  d E =-.124853E-01  mag=     2.0000
       N       E                     dE             d eps       ncg     rms          rms(c)
DAV:   1    -0.230058279383E+04    0.75943E-01   -0.10590E+01  4392   0.334E+00    0.819E-01
RMM:   2    -0.230066442401E+04   -0.81630E-01   -0.87961E-01  5930   0.669E-01    0.412E-01
RMM:   3    -0.230066637733E+04   -0.19533E-02   -0.73960E-02  5460   0.204E-01    0.293E-01
RMM:   4    -0.230066693516E+04   -0.55783E-03   -0.82276E-03  5723   0.517E-02    0.355E-01
RMM:   5    -0.230066563065E+04    0.13045E-02   -0.24878E-03  5458   0.353E-02    0.160E-01
RMM:   6    -0.230066537591E+04    0.25474E-03   -0.85476E-04  5250   0.202E-02    0.752E-02
RMM:   7    -0.230066530968E+04    0.66233E-04   -0.19004E-04  4557   0.118E-02    0.335E-02
RMM:   8    -0.230066530046E+04    0.92144E-05   -0.40725E-05  3064   0.598E-03
  49 F= -.23209994E+04 E0= -.23209994E+04  d E =-.175484E-01  mag=     2.0000
       N       E                     dE             d eps       ncg     rms          rms(c)
DAV:   1    -0.230065635429E+04    0.89554E-02   -0.21575E+00  4480   0.148E+00    0.333E-01
RMM:   2    -0.230067384748E+04   -0.17493E-01   -0.18751E-01  5980   0.290E-01    0.190E-01
RMM:   3    -0.230067457785E+04   -0.73037E-03   -0.15964E-02  5424   0.871E-02    0.172E-01
RMM:   4    -0.230067448762E+04    0.90229E-04   -0.17471E-03  4932   0.200E-02    0.127E-01
RMM:   5    -0.230067434144E+04    0.14618E-03   -0.43197E-04  4939   0.144E-02    0.888E-02
RMM:   6    -0.230067424403E+04    0.97409E-04   -0.23966E-04  4716   0.113E-02    0.303E-02
RMM:   7    -0.230067424034E+04    0.36898E-05   -0.33039E-05  3035   0.627E-03
  50 F= -.23210076E+04 E0= -.23210076E+04  d E =-.822724E-02  mag=     2.0000
       N       E                     dE             d eps       ncg     rms          rms(c)
DAV:   1    -0.230052900111E+04    0.14524E+00   -0.19411E+01  4392   0.442E+00    0.998E-01
RMM:   2    -0.230068704534E+04   -0.15804E+00   -0.16975E+00  6012   0.870E-01    0.563E-01
RMM:   3    -0.230069336389E+04   -0.63186E-02   -0.15049E-01  5399   0.251E-01    0.458E-01
RMM:   4    -0.230069317938E+04    0.18451E-03   -0.16392E-02  5788   0.592E-02    0.379E-01
RMM:   5    -0.230069212089E+04    0.10585E-02   -0.38027E-03  5495   0.400E-02    0.304E-01
RMM:   6    -0.230069105317E+04    0.10677E-02   -0.21277E-03  5581   0.315E-02    0.109E-01
RMM:   7    -0.230069096901E+04    0.84164E-04   -0.37829E-04  4859   0.162E-02    0.460E-02
RMM:   8    -0.230069095748E+04    0.11527E-04   -0.71788E-05  3304   0.840E-03    0.200E-02
RMM:   9    -0.230069095831E+04   -0.82498E-06   -0.25212E-05  2883   0.509E-03
  51 F= -.23210222E+04 E0= -.23210222E+04  d E =-.227899E-01  mag=     2.0000
       N       E                     dE             d eps       ncg     rms          rms(c)
DAV:   1    -0.230066383586E+04    0.27122E-01   -0.35755E+00  4496   0.189E+00    0.427E-01
RMM:   2    -0.230069265627E+04   -0.28820E-01   -0.30921E-01  5975   0.370E-01    0.237E-01
RMM:   3    -0.230069381620E+04   -0.11599E-02   -0.26630E-02  5377   0.112E-01    0.194E-01
RMM:   4    -0.230069381372E+04    0.24764E-05   -0.29220E-03  5335   0.252E-02    0.167E-01
RMM:   5    -0.230069355764E+04    0.25609E-03   -0.70739E-04  5136   0.178E-02    0.115E-01
RMM:   6    -0.230069339813E+04    0.15951E-03   -0.38129E-04  4933   0.138E-02    0.416E-02
RMM:   7    -0.230069338714E+04    0.10987E-04   -0.58085E-05  3399   0.752E-03    0.163E-02
RMM:   8    -0.230069338711E+04    0.28376E-07   -0.10723E-05  2823   0.436E-03
  52 F= -.23210237E+04 E0= -.23210237E+04  d E =-.242879E-01  mag=     2.0000
       N       E                     dE             d eps       ncg     rms          rms(c)
DAV:   1    -0.230066449128E+04    0.28896E-01   -0.56703E+00  4424   0.235E+00    0.633E-01
RMM:   2    -0.230071344092E+04   -0.48950E-01   -0.52442E-01  5970   0.470E-01    0.376E-01
RMM:   3    -0.230071651083E+04   -0.30699E-02   -0.47528E-02  5513   0.145E-01    0.433E-01
RMM:   4    -0.230071482305E+04    0.16878E-02   -0.56313E-03  5688   0.379E-02    0.199E-01
RMM:   5    -0.230071450009E+04    0.32296E-03   -0.13929E-03  5425   0.244E-02    0.153E-01
RMM:   6    -0.230071418897E+04    0.31112E-03   -0.77739E-04  5302   0.193E-02    0.477E-02
RMM:   7    -0.230071417995E+04    0.90243E-05   -0.88114E-05  3795   0.983E-03
  53 F= -.23210432E+04 E0= -.23210432E+04  d E =-.194717E-01  mag=     2.0000
       N       E                     dE             d eps       ncg     rms          rms(c)
DAV:   1    -0.230037047810E+04    0.34371E+00   -0.38886E+01  4424   0.616E+00    0.165E+00
RMM:   2    -0.230070972736E+04   -0.33925E+00   -0.36555E+00  6004   0.125E+00    0.919E-01
RMM:   3    -0.230073096169E+04   -0.21234E-01   -0.35072E-01  5476   0.365E-01    0.100E+00
RMM:   4    -0.230072312760E+04    0.78341E-02   -0.38936E-02  6002   0.939E-02    0.537E-01
RMM:   5    -0.230072057821E+04    0.25494E-02   -0.89549E-03  5590   0.612E-02    0.406E-01
RMM:   6    -0.230071854067E+04    0.20375E-02   -0.54299E-03  5535   0.496E-02    0.143E-01
RMM:   7    -0.230071840171E+04    0.13896E-03   -0.67494E-04  5116   0.244E-02    0.722E-02
RMM:   8    -0.230071834916E+04    0.52552E-04   -0.21106E-04  4179   0.117E-02    0.313E-02
RMM:   9    -0.230071834628E+04    0.28811E-05   -0.52182E-05  3199   0.676E-03
  54 F= -.23210439E+04 E0= -.23210439E+04  d E =-.201700E-01  mag=     2.0000
       N       E                     dE             d eps       ncg     rms          rms(c)
DAV:   1    -0.230064735322E+04    0.70996E-01   -0.89400E+00  4424   0.296E+00    0.798E-01
RMM:   2    -0.230072415875E+04   -0.76806E-01   -0.81550E-01  5905   0.585E-01    0.514E-01
RMM:   3    -0.230072935122E+04   -0.51925E-02   -0.79941E-02  5589   0.202E-01    0.559E-01
RMM:   4    -0.230072639041E+04    0.29608E-02   -0.88768E-03  5799   0.488E-02    0.250E-01
RMM:   5    -0.230072576540E+04    0.62501E-03   -0.20417E-03  5403   0.290E-02    0.160E-01
RMM:   6    -0.230072545113E+04    0.31427E-03   -0.12668E-03  5345   0.248E-02    0.665E-02
RMM:   7    -0.230072541601E+04    0.35123E-04   -0.18543E-04  4578   0.131E-02    0.290E-02
RMM:   8    -0.230072540596E+04    0.10055E-04   -0.26938E-05  2924   0.449E-03    0.166E-02
RMM:   9    -0.230072540135E+04    0.46085E-05   -0.19306E-05  2841   0.395E-03
  55 F= -.23210526E+04 E0= -.23210526E+04  d E =-.288883E-01  mag=     2.0000
       N       E                     dE             d eps       ncg     rms          rms(c)
DAV:   1    -0.230065754302E+04    0.67863E-01   -0.81154E+00  4392   0.278E+00    0.745E-01
RMM:   2    -0.230074388161E+04   -0.86339E-01   -0.92071E-01  6083   0.583E-01    0.400E-01
RMM:   3    -0.230074862688E+04   -0.47453E-02   -0.80001E-02  5556   0.168E-01    0.405E-01
RMM:   4    -0.230074789625E+04    0.73063E-03   -0.96788E-03  5819   0.409E-02    0.257E-01
RMM:   5    -0.230074716953E+04    0.72672E-03   -0.18775E-03  5385   0.278E-02    0.158E-01
RMM:   6    -0.230074690191E+04    0.26762E-03   -0.85800E-04  5290   0.200E-02    0.726E-02
RMM:   7    -0.230074686382E+04    0.38087E-04   -0.14493E-04  4254   0.986E-03    0.303E-02
RMM:   8    -0.230074686163E+04    0.21915E-05   -0.26573E-05  2859   0.594E-03
  56 F= -.23210721E+04 E0= -.23210721E+04  d E =-.195324E-01  mag=     2.0000
       N       E                     dE             d eps       ncg     rms          rms(c)
DAV:   1    -0.230050303253E+04    0.24383E+00   -0.23250E+01  4392   0.471E+00    0.126E+00
RMM:   2    -0.230075251309E+04   -0.24948E+00   -0.26666E+00  6132   0.993E-01    0.659E-01
RMM:   3    -0.230076690194E+04   -0.14389E-01   -0.23897E-01  5569   0.276E-01    0.667E-01
RMM:   4    -0.230076519044E+04    0.17115E-02   -0.28270E-02  6006   0.676E-02    0.433E-01
RMM:   5    -0.230076311062E+04    0.20798E-02   -0.52292E-03  5451   0.457E-02    0.274E-01
RMM:   6    -0.230076235221E+04    0.75841E-03   -0.25427E-03  5641   0.336E-02    0.133E-01
RMM:   7    -0.230076222263E+04    0.12958E-03   -0.46936E-04  5062   0.165E-02    0.608E-02
RMM:   8    -0.230076220950E+04    0.13123E-04   -0.10040E-04  3540   0.933E-03    0.248E-02
RMM:   9    -0.230076221344E+04   -0.39369E-05   -0.32192E-05  2912   0.550E-03
  57 F= -.23210842E+04 E0= -.23210842E+04  d E =-.316226E-01  mag=     2.0000
       N       E                     dE             d eps       ncg     rms          rms(c)
DAV:   1    -0.230070601217E+04    0.56197E-01   -0.61732E+00  4412   0.235E+00    0.626E-01
RMM:   2    -0.230077896056E+04   -0.72948E-01   -0.77159E-01  6191   0.494E-01    0.431E-01
RMM:   3    -0.230078477704E+04   -0.58165E-02   -0.69292E-02  5840   0.148E-01    0.531E-01
RMM:   4    -0.230078206318E+04    0.27139E-02   -0.82901E-03  5672   0.375E-02    0.199E-01
RMM:   5    -0.230078158087E+04    0.48231E-03   -0.15763E-03  5229   0.236E-02    0.132E-01
RMM:   6    -0.230078139428E+04    0.18659E-03   -0.68242E-04  5168   0.176E-02    0.611E-02
RMM:   7    -0.230078137892E+04    0.15359E-04   -0.99388E-05  3706   0.861E-03    0.281E-02
RMM:   8    -0.230078137577E+04    0.31515E-05   -0.29458E-05  2845   0.568E-03
  58 F= -.23211016E+04 E0= -.23211016E+04  d E =-.173765E-01  mag=     2.0000
       N       E                     dE             d eps       ncg     rms          rms(c)
DAV:   1    -0.230010739296E+04    0.67399E+00   -0.55654E+01  4392   0.703E+00    0.187E+00
RMM:   2    -0.230077724701E+04   -0.66985E+00   -0.71592E+00  6280   0.152E+00    0.109E+00
RMM:   3    -0.230083687405E+04   -0.59627E-01   -0.69341E-01  5857   0.424E-01    0.153E+00
RMM:   4    -0.230081679280E+04    0.20081E-01   -0.76321E-02  6220   0.103E-01    0.628E-01
RMM:   5    -0.230081159677E+04    0.51960E-02   -0.12507E-02  5500   0.647E-02    0.417E-01
RMM:   6    -0.230081003533E+04    0.15614E-02   -0.75463E-03  5586   0.506E-02    0.254E-01
RMM:   7    -0.230080964871E+04    0.38662E-03   -0.13864E-03  5429   0.284E-02    0.136E-01
RMM:   8    -0.230080947325E+04    0.17545E-03   -0.50079E-04  4507   0.158E-02    0.431E-02
RMM:   9    -0.230080947904E+04   -0.57843E-05   -0.12116E-04  3416   0.831E-03    0.211E-02
RMM:  10    -0.230080947574E+04    0.32950E-05   -0.24227E-05  2894   0.497E-03
  59 F= -.23211244E+04 E0= -.23211244E+04  d E =-.402160E-01  mag=     2.0000
       N       E                     dE             d eps       ncg     rms          rms(c)
DAV:   1    -0.230066310605E+04    0.14637E+00   -0.13299E+01  4424   0.338E+00    0.961E-01
RMM:   2    -0.230083000465E+04   -0.16690E+00   -0.17583E+00  6190   0.712E-01    0.783E-01
RMM:   3    -0.230084731152E+04   -0.17307E-01   -0.17436E-01  5991   0.223E-01    0.100E+00
RMM:   4    -0.230083695601E+04    0.10356E-01   -0.20111E-02  5953   0.599E-02    0.305E-01
RMM:   5    -0.230083574476E+04    0.12112E-02   -0.43393E-03  5505   0.372E-02    0.209E-01
RMM:   6    -0.230083531972E+04    0.42504E-03   -0.17917E-03  5529   0.268E-02    0.111E-01
RMM:   7    -0.230083525093E+04    0.68790E-04   -0.25539E-04  4480   0.128E-02    0.548E-02
RMM:   8    -0.230083522256E+04    0.28371E-04   -0.10318E-04  3174   0.794E-03    0.201E-02
RMM:   9    -0.230083522046E+04    0.20966E-05   -0.23977E-05  2921   0.472E-03
  60 F= -.23211477E+04 E0= -.23211477E+04  d E =-.232425E-01  mag=     2.0000
       N       E                     dE             d eps       ncg     rms          rms(c)
DAV:   1    -0.230076220556E+04    0.73017E-01   -0.62222E+00  4512   0.231E+00    0.658E-01
RMM:   2    -0.230084027299E+04   -0.78067E-01   -0.81589E-01  6184   0.480E-01    0.591E-01
RMM:   3    -0.230084714809E+04   -0.68751E-02   -0.76838E-02  5968   0.151E-01    0.682E-01
RMM:   4    -0.230084237722E+04    0.47709E-02   -0.93654E-03  5773   0.411E-02    0.203E-01
RMM:   5    -0.230084179033E+04    0.58689E-03   -0.19005E-03  5340   0.259E-02    0.136E-01
RMM:   6    -0.230084162772E+04    0.16260E-03   -0.78140E-04  5233   0.186E-02    0.719E-02
RMM:   7    -0.230084159910E+04    0.28620E-04   -0.10512E-04  3636   0.885E-03    0.354E-02
RMM:   8    -0.230084158460E+04    0.14501E-04   -0.44922E-05  2879   0.591E-03    0.136E-02
RMM:   9    -0.230084158265E+04    0.19519E-05   -0.12645E-05  2869   0.383E-03
  61 F= -.23211523E+04 E0= -.23211523E+04  d E =-.279322E-01  mag=     2.0000
       N       E                     dE             d eps       ncg     rms          rms(c)
DAV:   1    -0.230080198440E+04    0.39600E-01   -0.37709E+00  4448   0.185E+00    0.557E-01
RMM:   2    -0.230085401176E+04   -0.52027E-01   -0.55567E-01  6142   0.383E-01    0.337E-01
RMM:   3    -0.230085891709E+04   -0.49053E-02   -0.49285E-02  5837   0.120E-01    0.504E-01
RMM:   4    -0.230085663745E+04    0.22796E-02   -0.65537E-03  5655   0.317E-02    0.167E-01
RMM:   5    -0.230085618814E+04    0.44931E-03   -0.10617E-03  5006   0.203E-02    0.902E-02
RMM:   6    -0.230085613384E+04    0.54299E-04   -0.37448E-04  4775   0.148E-02    0.548E-02
RMM:   7    -0.230085610916E+04    0.24686E-04   -0.91642E-05  3717   0.747E-03    0.256E-02
RMM:   8    -0.230085610260E+04    0.65590E-05   -0.18808E-05  2847   0.533E-03
  62 F= -.23211658E+04 E0= -.23211658E+04  d E =-.134316E-01  mag=     2.0000
       N       E                     dE             d eps       ncg     rms          rms(c)
DAV:   1    -0.230077220159E+04    0.83908E-01   -0.62369E+00  4392   0.237E+00    0.715E-01
RMM:   2    -0.230085809637E+04   -0.85895E-01   -0.91963E-01  6156   0.495E-01    0.426E-01
RMM:   3    -0.230086663455E+04   -0.85382E-02   -0.84405E-02  5892   0.157E-01    0.653E-01
RMM:   4    -0.230086285330E+04    0.37812E-02   -0.10932E-02  5897   0.406E-02    0.215E-01
RMM:   5    -0.230086210838E+04    0.74493E-03   -0.17805E-03  5120   0.257E-02    0.119E-01
RMM:   6    -0.230086200617E+04    0.10221E-03   -0.68298E-04  5220   0.186E-02    0.733E-02
RMM:   7    -0.230086195903E+04    0.47140E-04   -0.15838E-04  4277   0.929E-03    0.348E-02
RMM:   8    -0.230086194645E+04    0.12584E-04   -0.31267E-05  2898   0.600E-03    0.135E-02
RMM:   9    -0.230086194559E+04    0.85658E-06   -0.13387E-05  2850   0.374E-03
  63 F= -.23211702E+04 E0= -.23211702E+04  d E =-.179030E-01  mag=     2.0000
       N       E                     dE             d eps       ncg     rms          rms(c)
DAV:   1    -0.230083040482E+04    0.31542E-01   -0.28789E+00  4464   0.161E+00    0.453E-01
RMM:   2    -0.230087055911E+04   -0.40154E-01   -0.42808E-01  6154   0.328E-01    0.313E-01
RMM:   3    -0.230087468520E+04   -0.41261E-02   -0.37811E-02  5872   0.104E-01    0.472E-01
RMM:   4    -0.230087255013E+04    0.21351E-02   -0.50228E-03  5496   0.274E-02    0.137E-01
RMM:   5    -0.230087218645E+04    0.36368E-03   -0.86656E-04  4817   0.182E-02    0.676E-02
RMM:   6    -0.230087216744E+04    0.19010E-04   -0.21644E-04  4348   0.129E-02    0.391E-02
RMM:   7    -0.230087215769E+04    0.97517E-05   -0.55065E-05  3255   0.620E-03
  64 F= -.23211793E+04 E0= -.23211793E+04  d E =-.908719E-02  mag=     2.0000
       N       E                     dE             d eps       ncg     rms          rms(c)
DAV:   1    -0.230076336338E+04    0.10880E+00   -0.79665E+00  4392   0.268E+00    0.752E-01
RMM:   2    -0.230087382703E+04   -0.11046E+00   -0.11848E+00  6181   0.552E-01    0.477E-01
RMM:   3    -0.230088626165E+04   -0.12435E-01   -0.11080E-01  5948   0.170E-01    0.782E-01
RMM:   4    -0.230088059945E+04    0.56622E-02   -0.14009E-02  5943   0.443E-02    0.233E-01
RMM:   5    -0.230087961275E+04    0.98671E-03   -0.22301E-03  5086   0.284E-02    0.125E-01
RMM:   6    -0.230087951812E+04    0.94621E-04   -0.80991E-04  5102   0.201E-02    0.815E-02
RMM:   7    -0.230087946900E+04    0.49124E-04   -0.20471E-04  4452   0.107E-02    0.448E-02
RMM:   8    -0.230087943989E+04    0.29112E-04   -0.57644E-05  2965   0.662E-03    0.149E-02
RMM:   9    -0.230087943664E+04    0.32442E-05   -0.18879E-05  2863   0.398E-03
  65 F= -.23211848E+04 E0= -.23211848E+04  d E =-.145402E-01  mag=     2.0000
       N       E                     dE             d eps       ncg     rms          rms(c)
DAV:   1    -0.230087269355E+04    0.67463E-02   -0.95654E-01  4560   0.968E-01    0.300E-01
RMM:   2    -0.230088692671E+04   -0.14233E-01   -0.15301E-01  6055   0.213E-01    0.175E-01
RMM:   3    -0.230088828013E+04   -0.13534E-02   -0.13816E-02  5697   0.704E-02    0.268E-01
RMM:   4    -0.230088762236E+04    0.65777E-03   -0.18110E-03  4971   0.178E-02    0.865E-02
RMM:   5    -0.230088748575E+04    0.13661E-03   -0.35057E-04  4457   0.132E-02    0.417E-02
RMM:   6    -0.230088747452E+04    0.11232E-04   -0.11264E-04  3910   0.108E-02    0.218E-02
RMM:   7    -0.230088746936E+04    0.51544E-05   -0.20074E-05  2849   0.479E-03
  66 F= -.23211921E+04 E0= -.23211921E+04  d E =-.728794E-02  mag=     2.0000
       N       E                     dE             d eps       ncg     rms          rms(c)
DAV:   1    -0.230086074957E+04    0.26725E-01   -0.19739E+00  4396   0.139E+00    0.431E-01
RMM:   2    -0.230089008298E+04   -0.29333E-01   -0.31578E-01  6045   0.305E-01    0.249E-01
RMM:   3    -0.230089288665E+04   -0.28037E-02   -0.28365E-02  5775   0.101E-01    0.389E-01
RMM:   4    -0.230089150295E+04    0.13837E-02   -0.37170E-03  5592   0.253E-02    0.124E-01
RMM:   5    -0.230089121983E+04    0.28311E-03   -0.72561E-04  4777   0.183E-02    0.610E-02
RMM:   6    -0.230089119178E+04    0.28050E-04   -0.22919E-04  4344   0.142E-02    0.335E-02
RMM:   7    -0.230089117884E+04    0.12946E-04   -0.41550E-05  3040   0.594E-03    0.159E-02
RMM:   8    -0.230089117578E+04    0.30598E-05   -0.12863E-05  2868   0.394E-03
  67 F= -.23211947E+04 E0= -.23211947E+04  d E =-.993449E-02  mag=     2.0000
       N       E                     dE             d eps       ncg     rms          rms(c)
DAV:   1    -0.230088061458E+04    0.10564E-01   -0.85974E-01  4464   0.906E-01    0.274E-01
RMM:   2    -0.230089624173E+04   -0.15627E-01   -0.16823E-01  6211   0.208E-01    0.145E-01
RMM:   3    -0.230089718509E+04   -0.94336E-03   -0.13915E-02  5503   0.618E-02    0.130E-01
RMM:   4    -0.230089723331E+04   -0.48219E-04   -0.17552E-03  3720   0.150E-02    0.114E-01
RMM:   5    -0.230089709537E+04    0.13794E-03   -0.23804E-04  3857   0.977E-03    0.612E-02
RMM:   6    -0.230089704471E+04    0.50655E-04   -0.14499E-04  4068   0.855E-03    0.210E-02
RMM:   7    -0.230089704065E+04    0.40598E-05   -0.24716E-05  2877   0.585E-03
  68 F= -.23212000E+04 E0= -.23212000E+04  d E =-.527168E-02  mag=     2.0000
       N       E                     dE             d eps       ncg     rms          rms(c)
DAV:   1    -0.230075730591E+04    0.13974E+00   -0.77252E+00  4392   0.272E+00    0.826E-01
RMM:   2    -0.230089940183E+04   -0.14210E+00   -0.15270E+00  6230   0.638E-01    0.483E-01
RMM:   3    -0.230090910930E+04   -0.97075E-02   -0.13498E-01  5753   0.191E-01    0.503E-01
RMM:   4    -0.230090832826E+04    0.78104E-03   -0.16087E-02  5693   0.470E-02    0.334E-01
RMM:   5    -0.230090708705E+04    0.12412E-02   -0.20539E-03  5343   0.246E-02    0.182E-01
RMM:   6    -0.230090661598E+04    0.47108E-03   -0.14291E-03  5187   0.227E-02    0.721E-02
RMM:   7    -0.230090655073E+04    0.65245E-04   -0.25493E-04  4453   0.139E-02    0.354E-02
RMM:   8    -0.230090653608E+04    0.14651E-04   -0.82249E-05  3227   0.746E-03    0.141E-02
RMM:   9    -0.230090653453E+04    0.15460E-05   -0.15426E-05  2878   0.448E-03
  69 F= -.23212077E+04 E0= -.23212077E+04  d E =-.130035E-01  mag=     2.0000
       N       E                     dE             d eps       ncg     rms          rms(c)
DAV:   1    -0.230087782369E+04    0.28712E-01   -0.18066E+00  4396   0.131E+00    0.440E-01
RMM:   2    -0.230091673306E+04   -0.38909E-01   -0.41977E-01  6197   0.331E-01    0.263E-01
RMM:   3    -0.230091938003E+04   -0.26470E-02   -0.36933E-02  5747   0.100E-01    0.278E-01
RMM:   4    -0.230091907731E+04    0.30272E-03   -0.44173E-03  5060   0.251E-02    0.174E-01
RMM:   5    -0.230091875221E+04    0.32510E-03   -0.58638E-04  4657   0.142E-02    0.981E-02
RMM:   6    -0.230091862318E+04    0.12904E-03   -0.38573E-04  4771   0.134E-02    0.377E-02
RMM:   7    -0.230091860813E+04    0.15048E-04   -0.61844E-05  3334   0.792E-03    0.168E-02
RMM:   8    -0.230091860792E+04    0.20798E-06   -0.19115E-05  2897   0.479E-03
  70 F= -.23212190E+04 E0= -.23212190E+04  d E =-.112598E-01  mag=     2.0000
       N       E                     dE             d eps       ncg     rms          rms(c)
DAV:   1    -0.230073529908E+04    0.18331E+00   -0.83196E+00  4392   0.281E+00    0.951E-01
RMM:   2    -0.230091649990E+04   -0.18120E+00   -0.19563E+00  6222   0.726E-01    0.586E-01
RMM:   3    -0.230092965241E+04   -0.13153E-01   -0.18509E-01  5864   0.224E-01    0.630E-01
RMM:   4    -0.230092784320E+04    0.18092E-02   -0.20887E-02  5948   0.550E-02    0.374E-01
RMM:   5    -0.230092631797E+04    0.15252E-02   -0.26243E-03  5527   0.279E-02    0.215E-01
RMM:   6    -0.230092568635E+04    0.63162E-03   -0.18625E-03  5164   0.268E-02    0.870E-02
RMM:   7    -0.230092559712E+04    0.89231E-04   -0.31923E-04  4623   0.158E-02    0.399E-02
RMM:   8    -0.230092558526E+04    0.11858E-04   -0.98471E-05  3415   0.816E-03    0.175E-02
RMM:   9    -0.230092558494E+04    0.31502E-06   -0.17883E-05  2861   0.498E-03
  71 F= -.23212242E+04 E0= -.23212242E+04  d E =-.165008E-01  mag=     2.0000
       N       E                     dE             d eps       ncg     rms          rms(c)
DAV:   1    -0.230091014814E+04    0.15437E-01   -0.71555E-01  4480   0.823E-01    0.272E-01
RMM:   2    -0.230092539575E+04   -0.15248E-01   -0.16438E-01  6102   0.202E-01    0.153E-01
RMM:   3    -0.230092641704E+04   -0.10213E-02   -0.14538E-02  5435   0.703E-02    0.146E-01
RMM:   4    -0.230092640272E+04    0.14323E-04   -0.16889E-03  3889   0.151E-02    0.109E-01
RMM:   5    -0.230092627760E+04    0.12512E-03   -0.23064E-04  4096   0.102E-02    0.622E-02
RMM:   6    -0.230092622458E+04    0.53022E-04   -0.14023E-04  4113   0.866E-03    0.204E-02
RMM:   7    -0.230092622282E+04    0.17580E-05   -0.20360E-05  2878   0.561E-03
  72 F= -.23212254E+04 E0= -.23212254E+04  d E =-.176460E-01  mag=     2.0000
       N       E                     dE             d eps       ncg     rms          rms(c)
DAV:   1    -0.230088748703E+04    0.38738E-01   -0.21531E+00  4396   0.138E+00    0.463E-01
RMM:   2    -0.230093376121E+04   -0.46274E-01   -0.50140E-01  6214   0.354E-01    0.237E-01
RMM:   3    -0.230093655306E+04   -0.27918E-02   -0.42901E-02  5669   0.102E-01    0.164E-01
RMM:   4    -0.230093665283E+04   -0.99771E-04   -0.48463E-03  4889   0.222E-02    0.128E-01
RMM:   5    -0.230093661051E+04    0.42319E-04   -0.48543E-04  4121   0.142E-02    0.141E-01
RMM:   6    -0.230093639982E+04    0.21069E-03   -0.32572E-04  4530   0.108E-02    0.644E-02
RMM:   7    -0.230093635795E+04    0.41875E-04   -0.14546E-04  3451   0.966E-03    0.214E-02
RMM:   8    -0.230093635183E+04    0.61203E-05   -0.23751E-05  2843   0.527E-03
  73 F= -.23212343E+04 E0= -.23212343E+04  d E =-.888777E-02  mag=     2.0000
       N       E                     dE             d eps       ncg     rms          rms(c)
DAV:   1    -0.230075652238E+04    0.17984E+00   -0.82120E+00  4392   0.269E+00    0.915E-01
RMM:   2    -0.230093384655E+04   -0.17732E+00   -0.19266E+00  6276   0.701E-01    0.478E-01
RMM:   3    -0.230094538394E+04   -0.11537E-01   -0.17780E-01  5753   0.204E-01    0.337E-01
RMM:   4    -0.230094565223E+04   -0.26829E-03   -0.18706E-02  5567   0.444E-02    0.246E-01
RMM:   5    -0.230094544158E+04    0.21065E-03   -0.17964E-03  5180   0.247E-02    0.261E-01
RMM:   6    -0.230094484962E+04    0.59196E-03   -0.12066E-03  5443   0.192E-02    0.164E-01
RMM:   7    -0.230094458545E+04    0.26417E-03   -0.80989E-04  4835   0.187E-02    0.531E-02
RMM:   8    -0.230094454254E+04    0.42907E-04   -0.10228E-04  3145   0.824E-03    0.264E-02
RMM:   9    -0.230094453711E+04    0.54328E-05   -0.41231E-05  2974   0.469E-03
  74 F= -.23212400E+04 E0= -.23212400E+04  d E =-.146579E-01  mag=     2.0000
       N       E                     dE             d eps       ncg     rms          rms(c)
DAV:   1    -0.230090624352E+04    0.38299E-01   -0.19071E+00  4432   0.123E+00    0.426E-01
RMM:   2    -0.230095099514E+04   -0.44752E-01   -0.48313E-01  6394   0.331E-01    0.254E-01
RMM:   3    -0.230095407595E+04   -0.30808E-02   -0.41910E-02  5812   0.974E-02    0.257E-01
RMM:   4    -0.230095393339E+04    0.14256E-03   -0.48787E-03  4276   0.229E-02    0.163E-01
RMM:   5    -0.230095366849E+04    0.26490E-03   -0.41105E-04  3967   0.110E-02    0.108E-01
RMM:   6    -0.230095350963E+04    0.15885E-03   -0.40400E-04  4401   0.129E-02    0.428E-02
RMM:   7    -0.230095349363E+04    0.16000E-04   -0.98084E-05  3387   0.810E-03    0.180E-02
RMM:   8    -0.230095349177E+04    0.18602E-05   -0.22033E-05  2858   0.508E-03
  75 F= -.23212479E+04 E0= -.23212479E+04  d E =-.784336E-02  mag=     2.0000
       N       E                     dE             d eps       ncg     rms          rms(c)
DAV:   1    -0.230053489085E+04    0.41860E+00   -0.17130E+01  4392   0.370E+00    0.129E+00
[...]
       N       E                     dE             d eps       ncg     rms          rms(c)
DAV:   1    -0.230110605492E+04    0.18419E-03   -0.10826E-01  4496   0.312E-01    0.536E-02
RMM:   2    -0.230110630132E+04   -0.24640E-03   -0.26880E-03  5590   0.466E-02    0.333E-02
RMM:   3    -0.230110629701E+04    0.43158E-05   -0.13909E-04  3526   0.134E-02    0.381E-02
RMM:   4    -0.230110628386E+04    0.13148E-04   -0.23280E-05  2877   0.463E-03    0.205E-02
RMM:   5    -0.230110627789E+04    0.59726E-05   -0.23624E-05  2977   0.436E-03
 258 F= -.23213747E+04 E0= -.23213747E+04  d E =-.102252E-03  mag=     2.0000
       N       E                     dE             d eps       ncg     rms          rms(c)
DAV:   1    -0.230110527514E+04    0.10087E-02   -0.43345E-01  4488   0.624E-01    0.106E-01
RMM:   2    -0.230110629504E+04   -0.10199E-02   -0.10807E-02  5611   0.923E-02    0.660E-02
RMM:   3    -0.230110630479E+04   -0.97557E-05   -0.59686E-04  4464   0.287E-02    0.834E-02
RMM:   4    -0.230110622971E+04    0.75084E-04   -0.82590E-05  3306   0.766E-03    0.346E-02
RMM:   5    -0.230110621121E+04    0.18495E-04   -0.67700E-05  3561   0.725E-03    0.199E-02
RMM:   6    -0.230110620766E+04    0.35506E-05   -0.23060E-05  2956   0.585E-03
 259 F= -.23213746E+04 E0= -.23213746E+04  d E =-.199962E-05  mag=     2.0000
       N       E                     dE             d eps       ncg     rms          rms(c)
DAV:   1    -0.230110610017E+04    0.11104E-03   -0.12310E-01  4460   0.334E-01    0.607E-02
RMM:   2    -0.230110640374E+04   -0.30357E-03   -0.32273E-03  5650   0.511E-02    0.365E-02
RMM:   3    -0.230110640861E+04   -0.48673E-05   -0.17795E-04  3727   0.169E-02    0.474E-02
RMM:   4    -0.230110638468E+04    0.23924E-04   -0.26886E-05  2883   0.520E-03    0.188E-02
RMM:   5    -0.230110637971E+04    0.49763E-05   -0.18446E-05  2907   0.412E-03
 260 F= -.23213747E+04 E0= -.23213747E+04  d E =-.166038E-03  mag=     2.0000
       N       E                     dE             d eps       ncg     rms          rms(c)
DAV:   1    -0.230110571533E+04    0.66936E-03   -0.34742E-01  4456   0.560E-01    0.998E-02
RMM:   2    -0.230110654695E+04   -0.83162E-03   -0.89038E-03  5676   0.846E-02    0.573E-02
RMM:   3    -0.230110655222E+04   -0.52709E-05   -0.47977E-04  4398   0.267E-02    0.711E-02
RMM:   4    -0.230110649998E+04    0.52240E-04   -0.70646E-05  3196   0.720E-03    0.328E-02
RMM:   5    -0.230110648474E+04    0.15241E-04   -0.54831E-05  3390   0.668E-03    0.190E-02
RMM:   6    -0.230110648117E+04    0.35709E-05   -0.20648E-05  2933   0.557E-03
 261 F= -.23213748E+04 E0= -.23213748E+04  d E =-.258447E-03  mag=     2.0000
       N       E                     dE             d eps       ncg     rms          rms(c)
DAV:   1    -0.230110291085E+04    0.35739E-02   -0.13948E+00  4456   0.112E+00    0.200E-01
RMM:   2    -0.230110631879E+04   -0.34079E-02   -0.36212E-02  5604   0.169E-01    0.121E-01
RMM:   3    -0.230110633760E+04   -0.18812E-04   -0.18867E-03  5097   0.496E-02    0.153E-01
RMM:   4    -0.230110608507E+04    0.25253E-03   -0.28877E-04  4562   0.132E-02    0.642E-02
RMM:   5    -0.230110602305E+04    0.62029E-04   -0.22153E-04  4268   0.119E-02    0.378E-02
RMM:   6    -0.230110600764E+04    0.15408E-04   -0.79129E-05  3659   0.910E-03    0.116E-02
RMM:   7    -0.230110600664E+04    0.10010E-05   -0.79728E-06  2825   0.414E-03
 262 F= -.23213743E+04 E0= -.23213743E+04  d E =0.230208E-03  mag=     2.0000
       N       E                     dE             d eps       ncg     rms          rms(c)
DAV:   1    -0.230110447629E+04    0.15313E-02   -0.90729E-01  4456   0.904E-01    0.159E-01
RMM:   2    -0.230110665892E+04   -0.21826E-02   -0.23301E-02  5598   0.135E-01    0.946E-02
RMM:   3    -0.230110665125E+04    0.76670E-05   -0.11953E-03  4909   0.401E-02    0.116E-01
RMM:   4    -0.230110651033E+04    0.14092E-03   -0.18370E-04  3960   0.105E-02    0.531E-02
RMM:   5    -0.230110647028E+04    0.40047E-04   -0.13746E-04  4062   0.974E-03    0.321E-02
RMM:   6    -0.230110645764E+04    0.12645E-04   -0.55989E-05  3393   0.775E-03    0.888E-03
RMM:   7    -0.230110645746E+04    0.17317E-06   -0.62626E-06  2810   0.405E-03
 263 F= -.23213748E+04 E0= -.23213748E+04  d E =-.231605E-03  mag=     2.0000
       N       E                     dE             d eps       ncg     rms          rms(c)
DAV:   1    -0.230110643132E+04    0.26321E-04   -0.19056E-02  4496   0.131E-01    0.239E-02
RMM:   2    -0.230110648018E+04   -0.48869E-04   -0.51188E-04  5323   0.206E-02    0.156E-02
RMM:   3    -0.230110648089E+04   -0.70289E-06   -0.28187E-05  2915   0.720E-03
 264 F= -.23213748E+04 E0= -.23213748E+04  d E =-.256886E-03  mag=     2.0000
       N       E                     dE             d eps       ncg     rms          rms(c)
DAV:   1    -0.230110647729E+04    0.28934E-05   -0.14158E-03  4784   0.361E-02    0.994E-03
RMM:   2    -0.230110647979E+04   -0.25030E-05   -0.36507E-05  3191   0.603E-03
 265 F= -.23213748E+04 E0= -.23213748E+04  d E =-.256312E-03  mag=     2.0000
       N       E                     dE             d eps       ncg     rms          rms(c)
DAV:   1    -0.230110655860E+04   -0.81310E-04   -0.34847E-02  4464   0.181E-01    0.443E-02
RMM:   2    -0.230110666095E+04   -0.10235E-03   -0.10331E-03  5653   0.300E-02    0.365E-02
RMM:   3    -0.230110666226E+04   -0.13130E-05   -0.86200E-05  3213   0.118E-02
 266 F= -.23213750E+04 E0= -.23213750E+04  d E =-.178655E-03  mag=     2.0000
       N       E                     dE             d eps       ncg     rms          rms(c)
DAV:   1    -0.230110661733E+04    0.43618E-04   -0.34463E-02  4528   0.181E-01    0.464E-02
RMM:   2    -0.230110670023E+04   -0.82895E-04   -0.10179E-03  5613   0.299E-02    0.244E-02
RMM:   3    -0.230110669593E+04    0.42954E-05   -0.55481E-05  3066   0.973E-03
 267 F= -.23213750E+04 E0= -.23213750E+04  d E =-.208592E-03  mag=     2.0000
       N       E                     dE             d eps       ncg     rms          rms(c)
DAV:   1    -0.230110674220E+04   -0.41977E-04   -0.79794E-03  4688   0.911E-02    0.285E-02
RMM:   2    -0.230110677260E+04   -0.30391E-04   -0.26628E-04  5195   0.157E-02    0.360E-02
RMM:   3    -0.230110676234E+04    0.10259E-04   -0.33326E-05  2892   0.704E-03    0.219E-02
RMM:   4    -0.230110675618E+04    0.61527E-05   -0.65427E-06  2806   0.306E-03
 268 F= -.23213751E+04 E0= -.23213751E+04  d E =-.594338E-04  mag=     2.0000
       N       E                     dE             d eps       ncg     rms          rms(c)
DAV:   1    -0.230110674576E+04    0.16580E-04   -0.15895E-02  4464   0.128E-01    0.337E-02
RMM:   2    -0.230110678844E+04   -0.42684E-04   -0.49054E-04  5562   0.209E-02    0.178E-02
RMM:   3    -0.230110679029E+04   -0.18473E-05   -0.30073E-05  2882   0.742E-03
 269 F= -.23213751E+04 E0= -.23213751E+04  d E =-.923786E-04  mag=     2.0000
       N       E                     dE             d eps       ncg     rms          rms(c)
DAV:   1    -0.230110683323E+04   -0.44788E-04   -0.93699E-03  4624   0.999E-02    0.251E-02
RMM:   2    -0.230110685462E+04   -0.21390E-04   -0.26122E-04  5061   0.161E-02    0.141E-02
RMM:   3    -0.230110685543E+04   -0.81665E-06   -0.19188E-05  2853   0.655E-03
 270 F= -.23213752E+04 E0= -.23213752E+04  d E =-.601674E-04  mag=     2.0000
       N       E                     dE             d eps       ncg     rms          rms(c)
DAV:   1    -0.230110683968E+04    0.14933E-04   -0.26204E-02  4432   0.167E-01    0.413E-02
RMM:   2    -0.230110690086E+04   -0.61171E-04   -0.71640E-04  5427   0.256E-02    0.254E-02
RMM:   3    -0.230110690468E+04   -0.38235E-05   -0.55315E-05  3005   0.979E-03
 271 F= -.23213752E+04 E0= -.23213752E+04  d E =-.101081E-03  mag=     2.0000
       N       E                     dE             d eps       ncg     rms          rms(c)
DAV:   1    -0.230110696024E+04   -0.59381E-04   -0.16273E-02  4496   0.133E-01    0.331E-02
RMM:   2    -0.230110699523E+04   -0.34994E-04   -0.44852E-04  5352   0.217E-02    0.165E-02
RMM:   3    -0.230110699145E+04    0.37813E-05   -0.28296E-05  2933   0.848E-03
 272 F= -.23213753E+04 E0= -.23213753E+04  d E =-.558947E-04  mag=     2.0000
       N       E                     dE             d eps       ncg     rms          rms(c)
DAV:   1    -0.230110700436E+04   -0.91321E-05   -0.14043E-02  4624   0.123E-01    0.338E-02
RMM:   2    -0.230110705315E+04   -0.48790E-04   -0.40567E-04  5289   0.194E-02    0.467E-02
RMM:   3    -0.230110703207E+04    0.21089E-04   -0.47891E-05  2916   0.867E-03    0.231E-02
RMM:   4    -0.230110702465E+04    0.74183E-05   -0.70739E-06  2807   0.319E-03
 273 F= -.23213753E+04 E0= -.23213753E+04  d E =-.603839E-04  mag=     2.0000
       N       E                     dE             d eps       ncg     rms          rms(c)
DAV:   1    -0.230110708163E+04   -0.49566E-04   -0.21505E-02  4496   0.152E-01    0.365E-02
RMM:   2    -0.230110713102E+04   -0.49387E-04   -0.57110E-04  5405   0.232E-02    0.151E-02
RMM:   3    -0.230110712698E+04    0.40330E-05   -0.27520E-05  2925   0.855E-03
 274 F= -.23213754E+04 E0= -.23213754E+04  d E =-.603907E-04  mag=     2.0000
       N       E                     dE             d eps       ncg     rms          rms(c)
DAV:   1    -0.230110713860E+04   -0.75829E-05   -0.45836E-03  4832   0.704E-02    0.221E-02
RMM:   2    -0.230110715777E+04   -0.19172E-04   -0.13720E-04  4416   0.117E-02    0.344E-02
RMM:   3    -0.230110714606E+04    0.11713E-04   -0.21340E-05  2848   0.594E-03    0.141E-02
RMM:   4    -0.230110714318E+04    0.28743E-05   -0.38785E-06  2761   0.242E-03
 275 F= -.23213754E+04 E0= -.23213754E+04  d E =-.572352E-04  mag=     2.0000
       N       E                     dE             d eps       ncg     rms          rms(c)
DAV:   1    -0.230110717874E+04   -0.32676E-04   -0.15477E-02  4464   0.130E-01    0.330E-02
RMM:   2    -0.230110722160E+04   -0.42862E-04   -0.48941E-04  5505   0.215E-02    0.154E-02
RMM:   3    -0.230110722110E+04    0.50207E-06   -0.25741E-05  2867   0.765E-03
 276 F= -.23213754E+04 E0= -.23213754E+04  d E =-.586112E-04  mag=     2.0000
       N       E                     dE             d eps       ncg     rms          rms(c)
DAV:   1    -0.230110721997E+04    0.16269E-05   -0.21112E-03  4984   0.483E-02    0.164E-02
RMM:   2    -0.230110722567E+04   -0.57002E-05   -0.66681E-05  3741   0.846E-03
 277 F= -.23213754E+04 E0= -.23213754E+04  d E =-.560719E-04  mag=     2.0000
       N       E                     dE             d eps       ncg     rms          rms(c)
DAV:   1    -0.230110724374E+04   -0.23773E-04   -0.15862E-02  4432   0.132E-01    0.337E-02
RMM:   2    -0.230110729795E+04   -0.54211E-04   -0.55507E-04  5760   0.237E-02    0.301E-02
RMM:   3    -0.230110729646E+04    0.14931E-05   -0.46207E-05  3022   0.837E-03
 278 F= -.23213755E+04 E0= -.23213755E+04  d E =-.514447E-04  mag=     2.0000
       N       E                     dE             d eps       ncg     rms          rms(c)
DAV:   1    -0.230110728763E+04    0.10324E-04   -0.36275E-04  5360   0.205E-02    0.106E-02
RMM:   2    -0.230110728751E+04    0.11499E-06   -0.14166E-05  2712   0.403E-03
 279 F= -.23213754E+04 E0= -.23213754E+04  d E =-.396442E-04  mag=     2.0000
       N       E                     dE             d eps       ncg     rms          rms(c)
DAV:   1    -0.230110733288E+04   -0.45249E-04   -0.15692E-02  4480   0.132E-01    0.368E-02
RMM:   2    -0.230110737774E+04   -0.44860E-04   -0.46875E-04  5446   0.219E-02    0.296E-02
RMM:   3    -0.230110737883E+04   -0.10933E-05   -0.48962E-05  3003   0.960E-03
 280 F= -.23213755E+04 E0= -.23213755E+04  d E =-.643125E-04  mag=     2.0000
       N       E                     dE             d eps       ncg     rms          rms(c)
DAV:   1    -0.230110736966E+04    0.80766E-05   -0.10309E-03  5376   0.341E-02    0.130E-02
RMM:   2    -0.230110736986E+04   -0.19593E-06   -0.27883E-05  3065   0.602E-03
 281 F= -.23213755E+04 E0= -.23213755E+04  d E =-.484266E-04  mag=     2.0000
       N       E                     dE             d eps       ncg     rms          rms(c)
DAV:   1    -0.230110740820E+04   -0.38538E-04   -0.16787E-02  4432   0.135E-01    0.341E-02
RMM:   2    -0.230110746625E+04   -0.58050E-04   -0.50532E-04  5462   0.225E-02    0.422E-02
RMM:   3    -0.230110745139E+04    0.14858E-04   -0.52141E-05  3012   0.917E-03    0.258E-02
RMM:   4    -0.230110744291E+04    0.84776E-05   -0.80586E-06  2814   0.378E-03
 282 F= -.23213755E+04 E0= -.23213755E+04  d E =-.321533E-04  mag=     2.0000
       N       E                     dE             d eps       ncg     rms          rms(c)
DAV:   1    -0.230110744900E+04    0.23866E-05   -0.11701E-03  4968   0.356E-02    0.103E-02
RMM:   2    -0.230110745129E+04   -0.22881E-05   -0.30628E-05  3164   0.623E-03
 283 F= -.23213755E+04 E0= -.23213755E+04  d E =-.293263E-04  mag=     2.0000
       N       E                     dE             d eps       ncg     rms          rms(c)
DAV:   1    -0.230110744537E+04    0.36304E-05   -0.39989E-04  4254   0.211E-02    0.559E-03
RMM:   2    -0.230110744648E+04   -0.11055E-05   -0.11758E-05  2388   0.434E-03
 284 F= -.23213755E+04 E0= -.23213755E+04  d E =-.307525E-04  mag=     2.0000
       N       E                     dE             d eps       ncg     rms          rms(c)
DAV:   1    -0.230110748690E+04   -0.41528E-04   -0.12574E-02  4400   0.116E-01    0.276E-02
RMM:   2    -0.230110752073E+04   -0.33831E-04   -0.37466E-04  5382   0.199E-02    0.147E-02
RMM:   3    -0.230110752296E+04   -0.22257E-05   -0.25007E-05  2879   0.749E-03
 285 F= -.23213756E+04 E0= -.23213756E+04  d E =-.480641E-04  mag=     2.0000
       N       E                     dE             d eps       ncg     rms          rms(c)
DAV:   1    -0.230110752510E+04   -0.43677E-05   -0.13603E-03  4680   0.388E-02    0.122E-02
RMM:   2    -0.230110752751E+04   -0.24142E-05   -0.39833E-05  3368   0.698E-03
 286 F= -.23213756E+04 E0= -.23213756E+04  d E =-.433050E-04  mag=     2.0000
       N       E                     dE             d eps       ncg     rms          rms(c)
DAV:   1    -0.230110754663E+04   -0.21526E-04   -0.70616E-03  4416   0.879E-02    0.252E-02
RMM:   2    -0.230110757630E+04   -0.29673E-04   -0.24207E-04  5053   0.167E-02    0.343E-02
RMM:   3    -0.230110756556E+04    0.10739E-04   -0.29627E-05  2869   0.659E-03    0.175E-02
RMM:   4    -0.230110756145E+04    0.41064E-05   -0.39586E-06  2747   0.310E-03
 287 F= -.23213756E+04 E0= -.23213756E+04  d E =-.302040E-04  mag=     2.0000
       N       E                     dE             d eps       ncg     rms          rms(c)
DAV:   1    -0.230110755852E+04    0.70390E-05   -0.15719E-03  4768   0.414E-02    0.107E-02
RMM:   2    -0.230110756197E+04   -0.34536E-05   -0.42756E-05  3390   0.721E-03
 288 F= -.23213756E+04 E0= -.23213756E+04  d E =-.289038E-04  mag=     2.0000
       N       E                     dE             d eps       ncg     rms          rms(c)
DAV:   1    -0.230110756177E+04   -0.32478E-05   -0.35371E-04  4304   0.201E-02    0.721E-03
RMM:   2    -0.230110756560E+04   -0.38353E-05   -0.14944E-05  2517   0.424E-03
 289 F= -.23213756E+04 E0= -.23213756E+04  d E =-.333556E-04  mag=     2.0000
       N       E                     dE             d eps       ncg     rms          rms(c)
DAV:   1    -0.230110758706E+04   -0.25290E-04   -0.60531E-03  4400   0.813E-02    0.191E-02
RMM:   2    -0.230110760462E+04   -0.17564E-04   -0.19715E-04  4982   0.148E-02    0.748E-03
RMM:   3    -0.230110760380E+04    0.82346E-06   -0.11190E-05  2778   0.524E-03
 290 F= -.23213756E+04 E0= -.23213756E+04  d E =-.214658E-04  mag=     2.0000
       N       E                     dE             d eps       ncg     rms          rms(c)
DAV:   1    -0.230110761080E+04   -0.61785E-05   -0.76617E-04  4648   0.291E-02    0.101E-02
RMM:   2    -0.230110761690E+04   -0.60995E-05   -0.29265E-05  3114   0.571E-03
 291 F= -.23213756E+04 E0= -.23213756E+04  d E =-.285575E-04  mag=     2.0000
       N       E                     dE             d eps       ncg     rms          rms(c)
DAV:   1    -0.230110763638E+04   -0.25579E-04   -0.42788E-03  4400   0.686E-02    0.174E-02
RMM:   2    -0.230110764809E+04   -0.11708E-04   -0.14160E-04  4569   0.132E-02    0.851E-03
RMM:   3    -0.230110764784E+04    0.25111E-06   -0.11231E-05  2790   0.536E-03
 292 F= -.23213756E+04 E0= -.23213756E+04  d E =-.165246E-04  mag=     2.0000
       N       E                     dE             d eps       ncg     rms          rms(c)
DAV:   1    -0.230110765128E+04   -0.31857E-05   -0.28463E-04  5000   0.179E-02    0.825E-03
RMM:   2    -0.230110765481E+04   -0.35301E-05   -0.14058E-05  2601   0.398E-03
 293 F= -.23213757E+04 E0= -.23213757E+04  d E =-.197720E-04  mag=     2.0000
       N       E                     dE             d eps       ncg     rms          rms(c)
DAV:   1    -0.230110766129E+04   -0.10011E-04   -0.44022E-03  4400   0.690E-02    0.177E-02
RMM:   2    -0.230110767217E+04   -0.10882E-04   -0.13410E-04  4454   0.125E-02    0.817E-03
RMM:   3    -0.230110767176E+04    0.40911E-06   -0.96976E-06  2758   0.559E-03
 294 F= -.23213757E+04 E0= -.23213757E+04  d E =-.146079E-04  mag=     2.0000
       N       E                     dE             d eps       ncg     rms          rms(c)
DAV:   1    -0.230110767119E+04    0.98185E-06   -0.39528E-04  4752   0.209E-02    0.863E-03
RMM:   2    -0.230110767480E+04   -0.36158E-05   -0.15867E-05  2736   0.438E-03
 295 F= -.23213757E+04 E0= -.23213757E+04  d E =-.169391E-04  mag=     2.0000
       N       E                     dE             d eps       ncg     rms          rms(c)
DAV:   1    -0.230110767988E+04   -0.86981E-05   -0.30437E-03  4368   0.570E-02    0.129E-02
RMM:   2    -0.230110768721E+04   -0.73267E-05   -0.89411E-05  3872   0.105E-02
 296 F= -.23213757E+04 E0= -.23213757E+04  d E =-.125459E-04  mag=     2.0000
       N       E                     dE             d eps       ncg     rms          rms(c)
DAV:   1    -0.230110768824E+04   -0.83557E-05   -0.31229E-04  4880   0.192E-02    0.656E-03
RMM:   2    -0.230110768952E+04   -0.12799E-05   -0.12302E-05  2476   0.421E-03
 297 F= -.23213757E+04 E0= -.23213757E+04  d E =-.149025E-04  mag=     2.0000
       N       E                     dE             d eps       ncg     rms          rms(c)
DAV:   1    -0.230110768582E+04    0.24221E-05   -0.12666E-03  4336   0.370E-02    0.948E-03
RMM:   2    -0.230110768878E+04   -0.29607E-05   -0.36460E-05  3113   0.726E-03
 298 F= -.23213757E+04 E0= -.23213757E+04  d E =-.142531E-04  mag=     2.0000
       N       E                     dE             d eps       ncg     rms          rms(c)
DAV:   1    -0.230110770952E+04   -0.23700E-04   -0.35317E-03  4400   0.616E-02    0.168E-02
RMM:   2    -0.230110772686E+04   -0.17337E-04   -0.12421E-04  4320   0.125E-02    0.282E-02
RMM:   3    -0.230110771878E+04    0.80706E-05   -0.17017E-05  2732   0.554E-03
 299 F= -.23213757E+04 E0= -.23213757E+04  d E =-.234436E-04  mag=     2.0000
       N       E                     dE             d eps       ncg     rms          rms(c)
DAV:   1    -0.230110772272E+04    0.41365E-05   -0.28285E-03  4432   0.548E-02    0.140E-02
RMM:   2    -0.230110772899E+04   -0.62715E-05   -0.81522E-05  3983   0.101E-02
 300 F= -.23213757E+04 E0= -.23213757E+04  d E =-.277393E-04  mag=     2.0000
       N       E                     dE             d eps       ncg     rms          rms(c)
DAV:   1    -0.230110774310E+04   -0.20383E-04   -0.42712E-03  4400   0.675E-02    0.199E-02
RMM:   2    -0.230110776854E+04   -0.25441E-04   -0.16525E-04  4898   0.133E-02    0.366E-02
RMM:   3    -0.230110775392E+04    0.14619E-04   -0.21530E-05  2815   0.555E-03    0.102E-02
RMM:   4    -0.230110775239E+04    0.15334E-05   -0.29859E-06  2656   0.243E-03
 301 F= -.23213757E+04 E0= -.23213757E+04  d E =-.208040E-04  mag=     2.0000
