       N       E                     dE             d eps       ncg     rms          rms(c)
DAV:   1     0.131782038312E+05    0.13178E+05   -0.84824E+05  4568   0.144E+03
DAV:   2    -0.102082328849E+04   -0.14199E+05   -0.13562E+05  5008   0.331E+02
DAV:   3    -0.248649996884E+04   -0.14657E+04   -0.14472E+04  5544   0.115E+02
DAV:   4    -0.253458204075E+04   -0.48082E+02   -0.47815E+02  6856   0.306E+01
DAV:   5    -0.253540903348E+04   -0.82699E+00   -0.82531E+00  6424   0.346E+00    0.170E+02
RMM:   6    -0.149886992989E+04    0.10365E+04   -0.19540E+03  4499   0.382E+01    0.722E+01
RMM:   7    -0.166777460380E+04   -0.16890E+03   -0.28661E+02  5151   0.139E+01    0.470E+01
RMM:   8    -0.172440581485E+04   -0.56631E+02   -0.32753E+01  5447   0.653E+00    0.366E+01
RMM:   9    -0.185460715256E+04   -0.13020E+03   -0.70347E+01  5104   0.803E+00    0.384E+01
RMM:  10    -0.193261594279E+04   -0.78009E+02   -0.43404E+01  5284   0.626E+00    0.218E+01
RMM:  11    -0.202535260436E+04   -0.92737E+02   -0.35822E+01  5031   0.501E+00    0.204E+01
RMM:  12    -0.208615051272E+04   -0.60798E+02   -0.22166E+01  5194   0.387E+00    0.141E+01
RMM:  13    -0.217706244720E+04   -0.90912E+02   -0.49545E+01  4761   0.541E+00    0.123E+01
RMM:  14    -0.227008224067E+04   -0.93020E+02   -0.79075E+01  4802   0.622E+00    0.111E+01
RMM:  15    -0.230543973869E+04   -0.35357E+02   -0.30644E+01  4840   0.431E+00    0.583E+00
RMM:  16    -0.232376145418E+04   -0.18322E+02   -0.19128E+01  4580   0.295E+00    0.333E+00
RMM:  17    -0.232812653798E+04   -0.43651E+01   -0.39929E+00  5080   0.179E+00    0.416E+00
RMM:  18    -0.232849735333E+04   -0.37082E+00   -0.86440E-01  5824   0.532E-01    0.389E+00
RMM:  19    -0.232884706620E+04   -0.34971E+00   -0.14400E-01  4955   0.252E-01    0.332E+00
RMM:  20    -0.232903054436E+04   -0.18348E+00   -0.11911E-01  4554   0.277E-01    0.340E+00
RMM:  21    -0.232911591318E+04   -0.85369E-01   -0.44691E-02  4730   0.144E-01    0.317E+00
RMM:  22    -0.232948802381E+04   -0.37211E+00   -0.37016E-01  4522   0.389E-01    0.197E+00
RMM:  23    -0.232955167516E+04   -0.63651E-01   -0.82258E-02  4516   0.264E-01    0.141E+00
RMM:  24    -0.232958049621E+04   -0.28821E-01   -0.47559E-02  4548   0.173E-01    0.752E-01
RMM:  25    -0.232964406153E+04   -0.63565E-01   -0.35805E-02  4575   0.135E-01    0.327E-01
RMM:  26    -0.232969131781E+04   -0.47256E-01   -0.11498E-02  4563   0.892E-02    0.305E-01
RMM:  27    -0.232973274126E+04   -0.41423E-01   -0.85191E-03  4481   0.737E-02    0.227E-01
RMM:  28    -0.232975550572E+04   -0.22764E-01   -0.59864E-03  4518   0.637E-02    0.141E-01
RMM:  29    -0.232976545849E+04   -0.99528E-02   -0.26628E-03  4853   0.413E-02    0.108E-01
RMM:  30    -0.232977310969E+04   -0.76512E-02   -0.17322E-03  4490   0.342E-02    0.617E-02
RMM:  31    -0.232977739566E+04   -0.42860E-02   -0.12821E-03  4443   0.314E-02    0.353E-02
RMM:  32    -0.232977865732E+04   -0.12617E-02   -0.50460E-04  4106   0.223E-02    0.154E-02
RMM:  33    -0.232977924395E+04   -0.58662E-03   -0.22951E-04  3873   0.144E-02    0.972E-03
RMM:  34    -0.232977946742E+04   -0.22348E-03   -0.85003E-05  3671   0.993E-03    0.500E-03
RMM:  35    -0.232977958679E+04   -0.11937E-03   -0.42647E-05  3496   0.595E-03    0.285E-03
RMM:  36    -0.232977961132E+04   -0.24532E-04   -0.10471E-05  2903   0.397E-03    0.149E-03
RMM:  37    -0.232977962321E+04   -0.11885E-04   -0.48291E-06  2692   0.244E-03    0.103E-03
RMM:  38    -0.232977962751E+04   -0.43078E-05   -0.24724E-06  2474   0.194E-03
   1 F= -.23512529E+04 E0= -.23512501E+04  d E =-.235125E+04  mag=     4.0001
       N       E                     dE             d eps       ncg     rms          rms(c)
DAV:   1    -0.232973412833E+04    0.45495E-01   -0.13212E+01  5072   0.268E+00    0.109E+00
RMM:   2    -0.232999270937E+04   -0.25858E+00   -0.26389E+00  6608   0.742E-01    0.112E+00
RMM:   3    -0.233001406581E+04   -0.21356E-01   -0.29835E-01  6334   0.302E-01    0.138E+00
RMM:   4    -0.233000480034E+04    0.92655E-02   -0.23837E-02  5837   0.576E-02    0.827E-01
RMM:   5    -0.233000587651E+04   -0.10762E-02   -0.59144E-03  5582   0.316E-02    0.965E-01
RMM:   6    -0.232999857951E+04    0.72970E-02   -0.13252E-02  5740   0.507E-02    0.431E-01
RMM:   7    -0.232999927136E+04   -0.69185E-03   -0.10058E-02  5773   0.420E-02    0.495E-01
RMM:   8    -0.232999739786E+04    0.18735E-02   -0.31840E-03  5100   0.252E-02    0.131E-01
RMM:   9    -0.232999753696E+04   -0.13911E-03   -0.73047E-04  3891   0.113E-02    0.133E-01
RMM:  10    -0.232999755589E+04   -0.18924E-04   -0.24232E-04  3185   0.778E-03    0.103E-01
RMM:  11    -0.232999751390E+04    0.41987E-04   -0.24273E-04  3454   0.735E-03    0.410E-02
RMM:  12    -0.232999751220E+04    0.16963E-05   -0.68988E-05  3038   0.537E-03
   2 F= -.23514716E+04 E0= -.23514686E+04  d E =-.218753E+00  mag=     4.0000
       N       E                     dE             d eps       ncg     rms          rms(c)
DAV:   1    -0.232974586207E+04    0.25165E+00   -0.16833E+01  4720   0.301E+00    0.140E+00
RMM:   2    -0.233008866522E+04   -0.34280E+00   -0.33257E+00  6569   0.830E-01    0.179E+00
RMM:   3    -0.233010862471E+04   -0.19959E-01   -0.42148E-01  6177   0.377E-01    0.178E+00
RMM:   4    -0.233009241479E+04    0.16210E-01   -0.32057E-02  5778   0.688E-02    0.109E+00
RMM:   5    -0.233009301285E+04   -0.59806E-03   -0.94959E-03  5885   0.404E-02    0.114E+00
RMM:   6    -0.233008040079E+04    0.12612E-01   -0.25888E-02  5627   0.699E-02    0.344E-01
RMM:   7    -0.233008252950E+04   -0.21287E-02   -0.69604E-03  5367   0.380E-02    0.602E-01
RMM:   8    -0.233008028848E+04    0.22410E-02   -0.33667E-03  5252   0.230E-02    0.192E-01
RMM:   9    -0.233008044701E+04   -0.15852E-03   -0.99126E-04  4072   0.119E-02    0.172E-01
RMM:  10    -0.233008044912E+04   -0.21178E-05   -0.48864E-04  3686   0.105E-02    0.123E-01
RMM:  11    -0.233008039089E+04    0.58232E-04   -0.44813E-04  3742   0.971E-03    0.331E-02
RMM:  12    -0.233008038779E+04    0.31063E-05   -0.43918E-05  2988   0.528E-03
   3 F= -.23515561E+04 E0= -.23515545E+04  d E =-.303226E+00  mag=     4.0000
       N       E                     dE             d eps       ncg     rms          rms(c)
DAV:   1    -0.233003077992E+04    0.49611E-01   -0.10566E+01  4624   0.236E+00    0.962E-01
RMM:   2    -0.233016605205E+04   -0.13527E+00   -0.13201E+00  6464   0.588E-01    0.123E+00
RMM:   3    -0.233016756711E+04   -0.15151E-02   -0.17071E-01  6119   0.283E-01    0.856E-01
RMM:   4    -0.233016137448E+04    0.61926E-02   -0.14743E-02  5850   0.533E-02    0.447E-01
RMM:   5    -0.233016456966E+04   -0.31952E-02   -0.68207E-03  5506   0.352E-02    0.768E-01
RMM:   6    -0.233015852662E+04    0.60430E-02   -0.58340E-03  5791   0.358E-02    0.185E-01
RMM:   7    -0.233015891063E+04   -0.38401E-03   -0.17127E-03  5078   0.187E-02    0.273E-01
RMM:   8    -0.233015843887E+04    0.47176E-03   -0.47168E-04  3245   0.108E-02    0.126E-01
RMM:   9    -0.233015841639E+04    0.22486E-04   -0.23663E-04  3364   0.712E-03    0.891E-02
RMM:  10    -0.233015839549E+04    0.20897E-04   -0.15060E-04  3142   0.646E-03    0.466E-02
RMM:  11    -0.233015838429E+04    0.11202E-04   -0.61006E-05  3042   0.515E-03    0.114E-02
RMM:  12    -0.233015838586E+04   -0.15722E-05   -0.75191E-06  2918   0.325E-03
   4 F= -.23516354E+04 E0= -.23516348E+04  d E =-.792788E-01  mag=     4.0000
       N       E                     dE             d eps       ncg     rms          rms(c)
DAV:   1    -0.233015839228E+04   -0.79937E-05   -0.25487E-04  4704   0.123E-02    0.525E-03
RMM:   2    -0.233015839637E+04   -0.40920E-05   -0.32115E-05  3066   0.336E-03
   5 F= -.23516354E+04 E0= -.23516348E+04  d E =-.792827E-01  mag=     4.0000
       N       E                     dE             d eps       ncg     rms          rms(c)
DAV:   1    -0.233016206853E+04   -0.36762E-02   -0.24534E+00  4624   0.132E+00    0.502E-01
RMM:   2    -0.233021317271E+04   -0.51104E-01   -0.51312E-01  6468   0.353E-01    0.643E-01
RMM:   3    -0.233021493166E+04   -0.17589E-02   -0.55069E-02  5978   0.148E-01    0.530E-01
RMM:   4    -0.233021250330E+04    0.24284E-02   -0.47516E-03  5112   0.312E-02    0.186E-01
RMM:   5    -0.233021248947E+04    0.13833E-04   -0.11751E-03  5031   0.173E-02    0.215E-01
RMM:   6    -0.233021203139E+04    0.45807E-03   -0.86932E-04  5002   0.154E-02    0.813E-02
RMM:   7    -0.233021202899E+04    0.23996E-05   -0.23974E-04  3787   0.995E-03    0.685E-02
RMM:   8    -0.233021198727E+04    0.41726E-04   -0.67499E-05  2967   0.624E-03    0.314E-02
RMM:   9    -0.233021198558E+04    0.16858E-05   -0.11795E-05  2934   0.328E-03
   6 F= -.23516882E+04 E0= -.23516877E+04  d E =-.528186E-01  mag=     4.0000
       N       E                     dE             d eps       ncg     rms          rms(c)
DAV:   1    -0.232995587594E+04    0.25611E+00   -0.14890E+01  4568   0.326E+00    0.125E+00
RMM:   2    -0.233027985609E+04   -0.32398E+00   -0.32401E+00  6451   0.879E-01    0.169E+00
RMM:   3    -0.233028359534E+04   -0.37392E-02   -0.35739E-01  5957   0.382E-01    0.121E+00
RMM:   4    -0.233027068348E+04    0.12912E-01   -0.28830E-02  5783   0.771E-02    0.424E-01
RMM:   5    -0.233027073525E+04   -0.51769E-04   -0.65368E-03  5964   0.400E-02    0.527E-01
RMM:   6    -0.233026794538E+04    0.27899E-02   -0.42409E-03  5955   0.326E-02    0.192E-01
RMM:   7    -0.233026788217E+04    0.63217E-04   -0.14850E-03  5246   0.214E-02    0.152E-01
RMM:   8    -0.233026766749E+04    0.21467E-03   -0.39707E-04  3481   0.117E-02    0.728E-02
RMM:   9    -0.233026762806E+04    0.39433E-04   -0.62801E-05  3020   0.648E-03    0.441E-02
RMM:  10    -0.233026761368E+04    0.14381E-04   -0.64951E-05  3033   0.544E-03    0.171E-02
RMM:  11    -0.233026762033E+04   -0.66549E-05   -0.15937E-05  2976   0.390E-03
   7 F= -.23517422E+04 E0= -.23517420E+04  d E =-.106781E+00  mag=     4.0000
       N       E                     dE             d eps       ncg     rms          rms(c)
DAV:   1    -0.233027255010E+04   -0.49364E-02   -0.34734E+00  4576   0.152E+00    0.565E-01
RMM:   2    -0.233031334708E+04   -0.40797E-01   -0.40703E-01  6227   0.355E-01    0.631E-01
RMM:   3    -0.233031429223E+04   -0.94515E-03   -0.38696E-02  5974   0.134E-01    0.619E-01
RMM:   4    -0.233031085426E+04    0.34380E-02   -0.38754E-03  5200   0.339E-02    0.192E-01
RMM:   5    -0.233031068459E+04    0.16967E-03   -0.16103E-03  5459   0.244E-02    0.181E-01
RMM:   6    -0.233031049927E+04    0.18532E-03   -0.10093E-03  5541   0.171E-02    0.128E-01
RMM:   7    -0.233031037759E+04    0.12168E-03   -0.11931E-04  3172   0.799E-03    0.443E-02
RMM:   8    -0.233031037670E+04    0.89445E-06   -0.41879E-05  3003   0.492E-03
   8 F= -.23517838E+04 E0= -.23517836E+04  d E =-.416710E-01  mag=     4.0000
       N       E                     dE             d eps       ncg     rms          rms(c)
DAV:   1    -0.233027377860E+04    0.36599E-01   -0.52787E+00  4576   0.188E+00    0.693E-01
RMM:   2    -0.233033627945E+04   -0.62501E-01   -0.62189E-01  6228   0.438E-01    0.790E-01
RMM:   3    -0.233033706214E+04   -0.78270E-03   -0.58348E-02  5966   0.165E-01    0.748E-01
RMM:   4    -0.233033202510E+04    0.50370E-02   -0.59161E-03  5314   0.416E-02    0.237E-01
RMM:   5    -0.233033214618E+04   -0.12109E-03   -0.25572E-03  5585   0.297E-02    0.291E-01
RMM:   6    -0.233033133042E+04    0.81576E-03   -0.17281E-03  5644   0.222E-02    0.119E-01
RMM:   7    -0.233033123209E+04    0.98322E-04   -0.20159E-04  3894   0.114E-02    0.537E-02
RMM:   8    -0.233033123114E+04    0.95369E-06   -0.59022E-05  3029   0.576E-03
   9 F= -.23518034E+04 E0= -.23518032E+04  d E =-.612635E-01  mag=     4.0000
       N       E                     dE             d eps       ncg     rms          rms(c)
DAV:   1    -0.233034683371E+04   -0.15602E-01   -0.23696E+00  4576   0.115E+00    0.405E-01
RMM:   2    -0.233037116058E+04   -0.24327E-01   -0.24540E-01  6450   0.257E-01    0.421E-01
RMM:   3    -0.233037265244E+04   -0.14919E-02   -0.24548E-02  5894   0.915E-02    0.447E-01
RMM:   4    -0.233037107016E+04    0.15823E-02   -0.24316E-03  4746   0.236E-02    0.180E-01
RMM:   5    -0.233037127240E+04   -0.20224E-03   -0.11213E-03  4694   0.171E-02    0.239E-01
RMM:   6    -0.233037077016E+04    0.50224E-03   -0.10643E-03  5022   0.166E-02    0.759E-02
RMM:   7    -0.233037075943E+04    0.10729E-04   -0.99631E-05  3087   0.733E-03    0.474E-02
RMM:   8    -0.233037075365E+04    0.57857E-05   -0.27749E-05  2982   0.367E-03
  10 F= -.23518424E+04 E0= -.23518422E+04  d E =-.390005E-01  mag=     4.0000
       N       E                     dE             d eps       ncg     rms          rms(c)
DAV:   1    -0.233023432791E+04    0.13643E+00   -0.21293E+01  4528   0.343E+00    0.124E+00
RMM:   2    -0.233045641489E+04   -0.22209E+00   -0.22343E+00  6452   0.788E-01    0.126E+00
RMM:   3    -0.233046826832E+04   -0.11853E-01   -0.22646E-01  6213   0.275E-01    0.131E+00
RMM:   4    -0.233045441095E+04    0.13857E-01   -0.22386E-02  5862   0.701E-02    0.564E-01
RMM:   5    -0.233045582778E+04   -0.14168E-02   -0.90685E-03  5960   0.454E-02    0.655E-01
RMM:   6    -0.233045156912E+04    0.42587E-02   -0.82095E-03  5660   0.446E-02    0.238E-01
RMM:   7    -0.233045169036E+04   -0.12124E-03   -0.20167E-03  5260   0.256E-02    0.226E-01
RMM:   8    -0.233045120704E+04    0.48332E-03   -0.60539E-04  3599   0.119E-02    0.760E-02
RMM:   9    -0.233045118091E+04    0.26128E-04   -0.17587E-04  3225   0.690E-03    0.462E-02
RMM:  10    -0.233045117440E+04    0.65121E-05   -0.69875E-05  3077   0.564E-03
  11 F= -.23519213E+04 E0= -.23519212E+04  d E =-.117877E+00  mag=     4.0000
       N       E                     dE             d eps       ncg     rms          rms(c)
DAV:   1    -0.232953653495E+04    0.91465E+00   -0.84502E+01  4528   0.683E+00    0.236E+00
RMM:   2    -0.233045360962E+04   -0.91707E+00   -0.93788E+00  6459   0.157E+00    0.226E+00
RMM:   3    -0.233047739489E+04   -0.23785E-01   -0.90439E-01  6284   0.547E-01    0.209E+00
RMM:   4    -0.233044538379E+04    0.32011E-01   -0.92208E-02  6085   0.135E-01    0.128E+00
RMM:   5    -0.233043801457E+04    0.73692E-02   -0.24512E-02  6082   0.700E-02    0.923E-01
RMM:   6    -0.233043123700E+04    0.67776E-02   -0.24829E-02  5336   0.789E-02    0.521E-01
RMM:   7    -0.233043076348E+04    0.47352E-03   -0.10040E-02  5873   0.555E-02    0.404E-01
RMM:   8    -0.233042861831E+04    0.21452E-02   -0.22586E-03  5467   0.246E-02    0.101E-01
RMM:   9    -0.233042848371E+04    0.13460E-03   -0.45972E-04  3922   0.117E-02    0.564E-02
RMM:  10    -0.233042847721E+04    0.65004E-05   -0.16225E-04  3448   0.851E-03    0.226E-02
RMM:  11    -0.233042849723E+04   -0.20015E-04   -0.30221E-05  3038   0.536E-03    0.109E-02
RMM:  12    -0.233042850931E+04   -0.12087E-04   -0.11856E-05  2918   0.413E-03    0.730E-03
RMM:  13    -0.233042851934E+04   -0.10026E-04   -0.91069E-06  2893   0.328E-03    0.389E-03
RMM:  14    -0.233042852537E+04   -0.60324E-05   -0.57454E-06  2858   0.298E-03
  12 F= -.23518952E+04 E0= -.23518952E+04  d E =-.917269E-01  mag=     4.0000
       N       E                     dE             d eps       ncg     rms          rms(c)
DAV:   1    -0.233014167134E+04    0.28685E+00   -0.32113E+01  4528   0.418E+00    0.136E+00
RMM:   2    -0.233045775958E+04   -0.31609E+00   -0.33699E+00  6433   0.947E-01    0.912E-01
RMM:   3    -0.233048541979E+04   -0.27660E-01   -0.34941E-01  6120   0.351E-01    0.103E+00
RMM:   4    -0.233047723146E+04    0.81883E-02   -0.30661E-02  6413   0.779E-02    0.610E-01
RMM:   5    -0.233047671727E+04    0.51418E-03   -0.10172E-02  5551   0.448E-02    0.622E-01
RMM:   6    -0.233047345325E+04    0.32640E-02   -0.70899E-03  5886   0.429E-02    0.279E-01
RMM:   7    -0.233047311461E+04    0.33864E-03   -0.21720E-03  5232   0.258E-02    0.146E-01
RMM:   8    -0.233047306463E+04    0.49980E-04   -0.58306E-04  3640   0.154E-02    0.121E-01
RMM:   9    -0.233047285961E+04    0.20503E-03   -0.22931E-04  3170   0.849E-03    0.477E-02
RMM:  10    -0.233047283226E+04    0.27348E-04   -0.94346E-05  3126   0.611E-03    0.193E-02
RMM:  11    -0.233047283383E+04   -0.15774E-05   -0.19673E-05  2987   0.449E-03
  13 F= -.23519417E+04 E0= -.23519417E+04  d E =-.138292E+00  mag=     4.0000
       N       E                     dE             d eps       ncg     rms          rms(c)
DAV:   1    -0.233048240447E+04   -0.95722E-02   -0.24305E+00  4608   0.122E+00    0.409E-01
RMM:   2    -0.233050753819E+04   -0.25134E-01   -0.26827E-01  6405   0.268E-01    0.283E-01
RMM:   3    -0.233050955172E+04   -0.20135E-02   -0.28099E-02  6006   0.100E-01    0.283E-01
RMM:   4    -0.233050898675E+04    0.56497E-03   -0.25611E-03  4787   0.233E-02    0.192E-01
RMM:   5    -0.233050893943E+04    0.47314E-04   -0.78684E-04  3831   0.134E-02    0.183E-01
RMM:   6    -0.233050859708E+04    0.34235E-03   -0.63205E-04  4503   0.138E-02    0.590E-02
RMM:   7    -0.233050858374E+04    0.13343E-04   -0.11001E-04  3236   0.807E-03    0.240E-02
RMM:   8    -0.233050857967E+04    0.40738E-05   -0.16929E-05  2985   0.431E-03
  14 F= -.23519769E+04 E0= -.23519769E+04  d E =-.352043E-01  mag=     4.0000
       N       E                     dE             d eps       ncg     rms          rms(c)
DAV:   1    -0.233034485986E+04    0.16372E+00   -0.21834E+01  4576   0.366E+00    0.122E+00
RMM:   2    -0.233057467478E+04   -0.22981E+00   -0.24528E+00  6374   0.812E-01    0.869E-01
RMM:   3    -0.233059048797E+04   -0.15813E-01   -0.25945E-01  6205   0.307E-01    0.781E-01
RMM:   4    -0.233058595626E+04    0.45317E-02   -0.23196E-02  6475   0.698E-02    0.549E-01
RMM:   5    -0.233058511208E+04    0.84419E-03   -0.57397E-03  5554   0.317E-02    0.487E-01
RMM:   6    -0.233058273985E+04    0.23722E-02   -0.49946E-03  5264   0.351E-02    0.189E-01
RMM:   7    -0.233058254295E+04    0.19691E-03   -0.13482E-03  5247   0.219E-02    0.865E-02
RMM:   8    -0.233058255637E+04   -0.13427E-04   -0.33455E-04  3623   0.113E-02    0.918E-02
RMM:   9    -0.233058244192E+04    0.11445E-03   -0.97311E-05  3051   0.699E-03    0.306E-02
RMM:  10    -0.233058242722E+04    0.14699E-04   -0.57981E-05  3055   0.500E-03    0.104E-02
RMM:  11    -0.233058242781E+04   -0.58248E-06   -0.10177E-05  2951   0.359E-03
  15 F= -.23520489E+04 E0= -.23520489E+04  d E =-.107217E+00  mag=     4.0000
       N       E                     dE             d eps       ncg     rms          rms(c)
DAV:   1    -0.232958990242E+04    0.99252E+00   -0.86788E+01  4560   0.730E+00    0.243E+00
RMM:   2    -0.233055467794E+04   -0.96478E+00   -0.10242E+01  6377   0.165E+00    0.188E+00
RMM:   3    -0.233059987224E+04   -0.45194E-01   -0.10619E+00  6195   0.632E-01    0.141E+00
RMM:   4    -0.233058214738E+04    0.17725E-01   -0.91288E-02  6549   0.141E-01    0.861E-01
RMM:   5    -0.233058387635E+04   -0.17290E-02   -0.21685E-02  5815   0.659E-02    0.106E+00
RMM:   6    -0.233057385518E+04    0.10021E-01   -0.17334E-02  5475   0.592E-02    0.464E-01
RMM:   7    -0.233057237033E+04    0.14849E-02   -0.58990E-03  5530   0.422E-02    0.202E-01
RMM:   8    -0.233057233875E+04    0.31578E-04   -0.16322E-03  5204   0.248E-02    0.199E-01
RMM:   9    -0.233057181855E+04    0.52020E-03   -0.47855E-04  4337   0.116E-02    0.683E-02
RMM:  10    -0.233057173238E+04    0.86172E-04   -0.21666E-04  3326   0.876E-03    0.221E-02
RMM:  11    -0.233057172307E+04    0.93018E-05   -0.56866E-05  3133   0.571E-03
  16 F= -.23520338E+04 E0= -.23520338E+04  d E =-.920540E-01  mag=     4.0000
       N       E                     dE             d eps       ncg     rms          rms(c)
DAV:   1    -0.233029368625E+04    0.27805E+00   -0.28652E+01  4560   0.416E+00    0.135E+00
RMM:   2    -0.233058849125E+04   -0.29481E+00   -0.31714E+00  6363   0.927E-01    0.844E-01
RMM:   3    -0.233061332457E+04   -0.24833E-01   -0.34425E-01  6141   0.365E-01    0.804E-01
RMM:   4    -0.233060738776E+04    0.59368E-02   -0.29582E-02  6556   0.790E-02    0.460E-01
RMM:   5    -0.233060508465E+04    0.23031E-02   -0.67613E-03  5388   0.423E-02    0.304E-01
RMM:   6    -0.233060627451E+04   -0.11899E-02   -0.54512E-03  5730   0.370E-02    0.422E-01
RMM:   7    -0.233060448474E+04    0.17898E-02   -0.17918E-03  5312   0.216E-02    0.153E-01
RMM:   8    -0.233060434428E+04    0.14046E-03   -0.48661E-04  3368   0.115E-02    0.106E-01
RMM:   9    -0.233060420547E+04    0.13881E-03   -0.17471E-04  3026   0.810E-03    0.298E-02
RMM:  10    -0.233060419138E+04    0.14090E-04   -0.70360E-05  3092   0.530E-03    0.122E-02
RMM:  11    -0.233060418939E+04    0.19963E-05   -0.12991E-05  2988   0.393E-03
  17 F= -.23520689E+04 E0= -.23520689E+04  d E =-.127168E+00  mag=     4.0000
       N       E                     dE             d eps       ncg     rms          rms(c)
DAV:   1    -0.233061959888E+04   -0.15407E-01   -0.26399E+00  4576   0.135E+00    0.467E-01
RMM:   2    -0.233064558754E+04   -0.25989E-01   -0.26404E-01  6157   0.300E-01    0.445E-01
RMM:   3    -0.233064585078E+04   -0.26324E-03   -0.27782E-02  6023   0.117E-01    0.333E-01
RMM:   4    -0.233064457686E+04    0.12739E-02   -0.27816E-03  5591   0.300E-02    0.177E-01
RMM:   5    -0.233064469461E+04   -0.11775E-03   -0.99578E-04  4653   0.192E-02    0.215E-01
RMM:   6    -0.233064429878E+04    0.39583E-03   -0.82429E-04  4932   0.176E-02    0.115E-01
RMM:   7    -0.233064418640E+04    0.11238E-03   -0.32140E-04  3555   0.128E-02    0.634E-02
RMM:   8    -0.233064413477E+04    0.51623E-04   -0.51037E-05  3049   0.575E-03    0.146E-02
RMM:   9    -0.233064412920E+04    0.55704E-05   -0.13079E-05  2963   0.389E-03
  18 F= -.23521084E+04 E0= -.23521084E+04  d E =-.394714E-01  mag=     4.0000
       N       E                     dE             d eps       ncg     rms          rms(c)
DAV:   1    -0.233059075239E+04    0.53382E-01   -0.84360E+00  4528   0.241E+00    0.834E-01
RMM:   2    -0.233067426411E+04   -0.83512E-01   -0.85098E-01  6151   0.541E-01    0.785E-01
RMM:   3    -0.233067534401E+04   -0.10799E-02   -0.91914E-02  6049   0.213E-01    0.575E-01
RMM:   4    -0.233067126171E+04    0.40823E-02   -0.87854E-03  5805   0.538E-02    0.280E-01
RMM:   5    -0.233067182137E+04   -0.55967E-03   -0.33208E-03  5474   0.353E-02    0.390E-01
RMM:   6    -0.233067047055E+04    0.13508E-02   -0.24213E-03  5285   0.290E-02    0.193E-01
RMM:   7    -0.233067026028E+04    0.21027E-03   -0.95412E-04  4709   0.202E-02    0.131E-01
RMM:   8    -0.233067004154E+04    0.21874E-03   -0.18788E-04  3998   0.870E-03    0.275E-02
RMM:   9    -0.233067002367E+04    0.17864E-04   -0.34800E-05  3038   0.553E-03    0.167E-02
RMM:  10    -0.233067001396E+04    0.97194E-05   -0.27902E-05  3076   0.474E-03
  19 F= -.23521334E+04 E0= -.23521334E+04  d E =-.644882E-01  mag=     4.0000
       N       E                     dE             d eps       ncg     rms          rms(c)
DAV:   1    -0.233066681779E+04    0.32059E-02   -0.18525E+00  4576   0.116E+00    0.409E-01
RMM:   2    -0.233069533643E+04   -0.28519E-01   -0.28061E-01  6404   0.276E-01    0.522E-01
RMM:   3    -0.233069519911E+04    0.13732E-03   -0.30798E-02  6196   0.111E-01    0.339E-01
RMM:   4    -0.233069435054E+04    0.84857E-03   -0.30726E-03  5045   0.249E-02    0.200E-01
RMM:   5    -0.233069401773E+04    0.33281E-03   -0.64611E-04  3696   0.138E-02    0.128E-01
RMM:   6    -0.233069379790E+04    0.21983E-03   -0.65428E-04  4824   0.144E-02    0.631E-02
RMM:   7    -0.233069381146E+04   -0.13556E-04   -0.21183E-04  3367   0.116E-02    0.647E-02
RMM:   8    -0.233069376208E+04    0.49373E-04   -0.55746E-05  2998   0.563E-03    0.142E-02
RMM:   9    -0.233069375882E+04    0.32612E-05   -0.10962E-05  2960   0.328E-03
  20 F= -.23521574E+04 E0= -.23521574E+04  d E =-.240358E-01  mag=     4.0000
       N       E                     dE             d eps       ncg     rms          rms(c)
DAV:   1    -0.233059560523E+04    0.98157E-01   -0.79945E+00  4528   0.242E+00    0.850E-01
RMM:   2    -0.233071823277E+04   -0.12263E+00   -0.12165E+00  6344   0.583E-01    0.106E+00
RMM:   3    -0.233071933493E+04   -0.11022E-02   -0.13853E-01  6164   0.241E-01    0.733E-01
RMM:   4    -0.233071520256E+04    0.41324E-02   -0.13415E-02  5785   0.524E-02    0.419E-01
RMM:   5    -0.233071370632E+04    0.14962E-02   -0.29088E-03  5370   0.276E-02    0.264E-01
RMM:   6    -0.233071272136E+04    0.98495E-03   -0.27047E-03  5009   0.277E-02    0.125E-01
RMM:   7    -0.233071277412E+04   -0.52754E-04   -0.85738E-04  4527   0.220E-02    0.128E-01
RMM:   8    -0.233071257898E+04    0.19514E-03   -0.25716E-04  3964   0.913E-03    0.313E-02
RMM:   9    -0.233071255909E+04    0.19889E-04   -0.42489E-05  3008   0.564E-03    0.171E-02
RMM:  10    -0.233071255484E+04    0.42496E-05   -0.21707E-05  2969   0.377E-03
  21 F= -.23521768E+04 E0= -.23521768E+04  d E =-.434638E-01  mag=     4.0000
       N       E                     dE             d eps       ncg     rms          rms(c)
DAV:   1    -0.233070274749E+04    0.98116E-02   -0.28305E+00  4544   0.155E+00    0.488E-01
RMM:   2    -0.233073832201E+04   -0.35575E-01   -0.37165E-01  6028   0.324E-01    0.460E-01
RMM:   3    -0.233074177483E+04   -0.34528E-02   -0.42602E-02  5912   0.139E-01    0.511E-01
RMM:   4    -0.233073925101E+04    0.25238E-02   -0.39194E-03  5419   0.315E-02    0.189E-01
RMM:   5    -0.233073917039E+04    0.80618E-04   -0.10645E-03  4769   0.178E-02    0.182E-01
RMM:   6    -0.233073873804E+04    0.43235E-03   -0.10042E-03  4861   0.183E-02    0.643E-02
RMM:   7    -0.233073873886E+04   -0.81789E-06   -0.20119E-04  3570   0.118E-02    0.543E-02
RMM:   8    -0.233073870905E+04    0.29811E-04   -0.68908E-05  3028   0.576E-03    0.229E-02
RMM:   9    -0.233073870024E+04    0.88103E-05   -0.16453E-05  2972   0.385E-03
  22 F= -.23522033E+04 E0= -.23522032E+04  d E =-.264089E-01  mag=     4.0000
       N       E                     dE             d eps       ncg     rms          rms(c)
DAV:   1    -0.233068488378E+04    0.53825E-01   -0.51656E+00  4528   0.210E+00    0.658E-01
RMM:   2    -0.233074977415E+04   -0.64890E-01   -0.68113E-01  6033   0.440E-01    0.605E-01
RMM:   3    -0.233075691019E+04   -0.71360E-02   -0.80609E-02  5904   0.193E-01    0.708E-01
RMM:   4    -0.233075205216E+04    0.48580E-02   -0.72627E-03  5738   0.429E-02    0.258E-01
RMM:   5    -0.233075188349E+04    0.16868E-03   -0.19687E-03  5313   0.234E-02    0.246E-01
RMM:   6    -0.233075110525E+04    0.77824E-03   -0.18389E-03  5072   0.243E-02    0.934E-02
RMM:   7    -0.233075109571E+04    0.95376E-05   -0.40078E-04  4286   0.152E-02    0.739E-02
RMM:   8    -0.233075104233E+04    0.53375E-04   -0.13470E-04  3202   0.702E-03    0.340E-02
RMM:   9    -0.233075102311E+04    0.19227E-04   -0.30863E-05  2984   0.479E-03    0.166E-02
RMM:  10    -0.233075101984E+04    0.32708E-05   -0.15083E-05  2970   0.317E-03
  23 F= -.23522160E+04 E0= -.23522159E+04  d E =-.391151E-01  mag=     4.0000
       N       E                     dE             d eps       ncg     rms          rms(c)
DAV:   1    -0.233071622057E+04    0.34803E-01   -0.41659E+00  4552   0.198E+00    0.580E-01
RMM:   2    -0.233077256790E+04   -0.56347E-01   -0.60626E-01  6059   0.409E-01    0.327E-01
RMM:   3    -0.233077797263E+04   -0.54047E-02   -0.70341E-02  5645   0.175E-01    0.360E-01
RMM:   4    -0.233077755927E+04    0.41336E-03   -0.59506E-03  5543   0.344E-02    0.240E-01
RMM:   5    -0.233077696171E+04    0.59756E-03   -0.11054E-03  4750   0.194E-02    0.142E-01
RMM:   6    -0.233077702569E+04   -0.63984E-04   -0.84808E-04  5027   0.163E-02    0.163E-01
RMM:   7    -0.233077668739E+04    0.33830E-03   -0.46062E-04  4906   0.135E-02    0.339E-02
RMM:   8    -0.233077666963E+04    0.17761E-04   -0.61785E-05  3039   0.603E-03    0.212E-02
RMM:   9    -0.233077666710E+04    0.25272E-05   -0.25495E-05  2949   0.429E-03
  24 F= -.23522418E+04 E0= -.23522418E+04  d E =-.258487E-01  mag=     4.0000
       N       E                     dE             d eps       ncg     rms          rms(c)
DAV:   1    -0.233074501891E+04    0.31651E-01   -0.25943E+00  4600   0.156E+00    0.456E-01
RMM:   2    -0.233077969075E+04   -0.34672E-01   -0.37371E-01  6063   0.320E-01    0.249E-01
RMM:   3    -0.233078311713E+04   -0.34264E-02   -0.45724E-02  5566   0.143E-01    0.236E-01
RMM:   4    -0.233078316233E+04   -0.45200E-04   -0.37461E-03  5057   0.272E-02    0.196E-01
RMM:   5    -0.233078277509E+04    0.38724E-03   -0.71527E-04  4397   0.156E-02    0.122E-01
RMM:   6    -0.233078279755E+04   -0.22456E-04   -0.51425E-04  4410   0.129E-02    0.133E-01
RMM:   7    -0.233078258024E+04    0.21731E-03   -0.28420E-04  4324   0.111E-02    0.263E-02
RMM:   8    -0.233078257353E+04    0.67037E-05   -0.45015E-05  3007   0.608E-03
  25 F= -.23522479E+04 E0= -.23522479E+04  d E =-.319518E-01  mag=     4.0000
       N       E                     dE             d eps       ncg     rms          rms(c)
DAV:   1    -0.233071230801E+04    0.70272E-01   -0.52651E+00  4528   0.224E+00    0.709E-01
RMM:   2    -0.233080650133E+04   -0.94193E-01   -0.98112E-01  6170   0.494E-01    0.690E-01
RMM:   3    -0.233081594888E+04   -0.94476E-02   -0.11189E-01  5956   0.213E-01    0.781E-01
RMM:   4    -0.233081035740E+04    0.55915E-02   -0.97107E-03  6002   0.470E-02    0.235E-01
RMM:   5    -0.233080984589E+04    0.51151E-03   -0.19742E-03  5118   0.233E-02    0.159E-01
RMM:   6    -0.233080997984E+04   -0.13395E-03   -0.12965E-03  5347   0.189E-02    0.198E-01
RMM:   7    -0.233080949116E+04    0.48868E-03   -0.58408E-04  4999   0.150E-02    0.374E-02
RMM:   8    -0.233080947042E+04    0.20745E-04   -0.87972E-05  3125   0.682E-03    0.267E-02
RMM:   9    -0.233080946450E+04    0.59150E-05   -0.29103E-05  2953   0.494E-03
  26 F= -.23522743E+04 E0= -.23522743E+04  d E =-.263835E-01  mag=     4.0000
       N       E                     dE             d eps       ncg     rms          rms(c)
DAV:   1    -0.233077070796E+04    0.38762E-01   -0.23998E+00  4576   0.151E+00    0.475E-01
RMM:   2    -0.233081280973E+04   -0.42102E-01   -0.44293E-01  6153   0.332E-01    0.414E-01
RMM:   3    -0.233081773585E+04   -0.49261E-02   -0.50900E-02  5933   0.143E-01    0.530E-01
RMM:   4    -0.233081523553E+04    0.25003E-02   -0.44750E-03  5632   0.313E-02    0.157E-01
RMM:   5    -0.233081503746E+04    0.19807E-03   -0.85309E-04  4653   0.163E-02    0.121E-01
RMM:   6    -0.233081500721E+04    0.30241E-04   -0.57058E-04  4668   0.128E-02    0.124E-01
RMM:   7    -0.233081481944E+04    0.18778E-03   -0.25892E-04  4205   0.111E-02    0.265E-02
RMM:   8    -0.233081481309E+04    0.63490E-05   -0.49329E-05  3007   0.612E-03
  27 F= -.23522793E+04 E0= -.23522793E+04  d E =-.314164E-01  mag=     4.0000
       N       E                     dE             d eps       ncg     rms          rms(c)
DAV:   1    -0.233076385785E+04    0.50962E-01   -0.38317E+00  4536   0.184E+00    0.616E-01
RMM:   2    -0.233083665696E+04   -0.72799E-01   -0.73686E-01  6449   0.428E-01    0.674E-01
RMM:   3    -0.233084095361E+04   -0.42966E-02   -0.79659E-02  6085   0.167E-01    0.581E-01
RMM:   4    -0.233083795604E+04    0.29976E-02   -0.74535E-03  5712   0.388E-02    0.248E-01
RMM:   5    -0.233083762375E+04    0.33229E-03   -0.13187E-03  5115   0.184E-02    0.201E-01
RMM:   6    -0.233083710706E+04    0.51669E-03   -0.95347E-04  4785   0.179E-02    0.836E-02
RMM:   7    -0.233083715708E+04   -0.50023E-04   -0.47110E-04  4569   0.151E-02    0.893E-02
RMM:   8    -0.233083706278E+04    0.94309E-04   -0.13714E-04  3185   0.739E-03    0.242E-02
RMM:   9    -0.233083705450E+04    0.82769E-05   -0.21939E-05  2988   0.470E-03
  28 F= -.23523003E+04 E0= -.23523003E+04  d E =-.209777E-01  mag=     4.0000
       N       E                     dE             d eps       ncg     rms          rms(c)
DAV:   1    -0.233077422016E+04    0.62843E-01   -0.36991E+00  4536   0.181E+00    0.600E-01
RMM:   2    -0.233084374096E+04   -0.69521E-01   -0.70903E-01  6367   0.424E-01    0.616E-01
RMM:   3    -0.233084866157E+04   -0.49206E-02   -0.77310E-02  6025   0.169E-01    0.567E-01
RMM:   4    -0.233084567159E+04    0.29900E-02   -0.70714E-03  5719   0.383E-02    0.233E-01
RMM:   5    -0.233084542520E+04    0.24639E-03   -0.12713E-03  5069   0.181E-02    0.201E-01
RMM:   6    -0.233084490426E+04    0.52094E-03   -0.94997E-04  4847   0.178E-02    0.797E-02
RMM:   7    -0.233084491885E+04   -0.14595E-04   -0.41936E-04  4639   0.144E-02    0.733E-02
RMM:   8    -0.233084485836E+04    0.60494E-04   -0.11919E-04  3115   0.713E-03    0.270E-02
RMM:   9    -0.233084484704E+04    0.11318E-04   -0.19781E-05  2991   0.467E-03    0.158E-02
RMM:  10    -0.233084484305E+04    0.39884E-05   -0.14699E-05  2937   0.325E-03
  29 F= -.23523069E+04 E0= -.23523069E+04  d E =-.275529E-01  mag=     4.0000
       N       E                     dE             d eps       ncg     rms          rms(c)
DAV:   1    -0.233078472241E+04    0.60125E-01   -0.43020E+00  4528   0.191E+00    0.640E-01
RMM:   2    -0.233086216229E+04   -0.77440E-01   -0.79219E-01  6411   0.451E-01    0.551E-01
RMM:   3    -0.233086704111E+04   -0.48788E-02   -0.80415E-02  6183   0.173E-01    0.465E-01
RMM:   4    -0.233086459538E+04    0.24457E-02   -0.74197E-03  5893   0.396E-02    0.221E-01
RMM:   5    -0.233086463018E+04   -0.34797E-04   -0.12883E-03  4940   0.175E-02    0.245E-01
RMM:   6    -0.233086398158E+04    0.64859E-03   -0.94152E-04  4863   0.168E-02    0.942E-02
RMM:   7    -0.233086401934E+04   -0.37759E-04   -0.48856E-04  4624   0.143E-02    0.928E-02
RMM:   8    -0.233086391946E+04    0.99880E-04   -0.15415E-04  3322   0.765E-03    0.262E-02
RMM:   9    -0.233086390908E+04    0.10378E-04   -0.22770E-05  2991   0.452E-03    0.149E-02
RMM:  10    -0.233086390614E+04    0.29470E-05   -0.11792E-05  2929   0.304E-03
  30 F= -.23523255E+04 E0= -.23523255E+04  d E =-.186168E-01  mag=     4.0000
       N       E                     dE             d eps       ncg     rms          rms(c)
DAV:   1    -0.233081380560E+04    0.50103E-01   -0.30031E+00  4544   0.160E+00    0.534E-01
RMM:   2    -0.233086776444E+04   -0.53959E-01   -0.55342E-01  6404   0.379E-01    0.450E-01
RMM:   3    -0.233087135250E+04   -0.35881E-02   -0.57261E-02  6152   0.145E-01    0.381E-01
RMM:   4    -0.233086967853E+04    0.16740E-02   -0.51791E-03  5720   0.332E-02    0.179E-01
RMM:   5    -0.233086974420E+04   -0.65675E-04   -0.91022E-04  4627   0.152E-02    0.211E-01
RMM:   6    -0.233086926473E+04    0.47947E-03   -0.64628E-04  4702   0.142E-02    0.772E-02
RMM:   7    -0.233086928096E+04   -0.16225E-04   -0.31094E-04  4243   0.119E-02    0.714E-02
RMM:   8    -0.233086922308E+04    0.57871E-04   -0.99375E-05  3134   0.671E-03    0.224E-02
RMM:   9    -0.233086921585E+04    0.72393E-05   -0.16304E-05  2977   0.402E-03
  31 F= -.23523305E+04 E0= -.23523305E+04  d E =-.236187E-01  mag=     4.0000
       N       E                     dE             d eps       ncg     rms          rms(c)
DAV:   1    -0.233077967865E+04    0.89544E-01   -0.54939E+00  4528   0.210E+00    0.727E-01
RMM:   2    -0.233088273388E+04   -0.10306E+00   -0.10851E+00  6394   0.501E-01    0.506E-01
RMM:   3    -0.233089174436E+04   -0.90105E-02   -0.11531E-01  6209   0.196E-01    0.488E-01
RMM:   4    -0.233088940352E+04    0.23408E-02   -0.10220E-02  6205   0.446E-02    0.253E-01
RMM:   5    -0.233088936443E+04    0.39088E-04   -0.15771E-03  5099   0.187E-02    0.284E-01
RMM:   6    -0.233088865921E+04    0.70522E-03   -0.13088E-03  4716   0.184E-02    0.137E-01
RMM:   7    -0.233088852205E+04    0.13716E-03   -0.56135E-04  4787   0.141E-02    0.626E-02
RMM:   8    -0.233088849355E+04    0.28506E-04   -0.14749E-04  3075   0.912E-03    0.464E-02
RMM:   9    -0.233088846092E+04    0.32627E-04   -0.35403E-05  2959   0.473E-03    0.163E-02
RMM:  10    -0.233088845577E+04    0.51479E-05   -0.20888E-05  2983   0.330E-03
  32 F= -.23523502E+04 E0= -.23523502E+04  d E =-.197144E-01  mag=     4.0000
       N       E                     dE             d eps       ncg     rms          rms(c)
DAV:   1    -0.233084484446E+04    0.43616E-01   -0.23858E+00  4608   0.138E+00    0.478E-01
RMM:   2    -0.233088935260E+04   -0.44508E-01   -0.46849E-01  6398   0.329E-01    0.336E-01
RMM:   3    -0.233089334935E+04   -0.39968E-02   -0.49928E-02  6144   0.128E-01    0.341E-01
RMM:   4    -0.233089226261E+04    0.10867E-02   -0.44873E-03  5664   0.295E-02    0.177E-01
RMM:   5    -0.233089226402E+04   -0.14143E-05   -0.73330E-04  4090   0.128E-02    0.193E-01
RMM:   6    -0.233089187461E+04    0.38941E-03   -0.61526E-04  4300   0.137E-02    0.738E-02
RMM:   7    -0.233089183752E+04    0.37085E-04   -0.22908E-04  4029   0.993E-03    0.364E-02
RMM:   8    -0.233089182930E+04    0.82205E-05   -0.56883E-05  2970   0.640E-03
  33 F= -.23523540E+04 E0= -.23523540E+04  d E =-.234745E-01  mag=     4.0000
       N       E                     dE             d eps       ncg     rms          rms(c)
DAV:   1    -0.233077113380E+04    0.12070E+00   -0.68749E+00  4528   0.231E+00    0.783E-01
RMM:   2    -0.233089637482E+04   -0.12524E+00   -0.13346E+00  6484   0.552E-01    0.446E-01
RMM:   3    -0.233090793515E+04   -0.11560E-01   -0.15184E-01  6094   0.219E-01    0.391E-01
RMM:   4    -0.233090792190E+04    0.13245E-04   -0.12679E-02  5858   0.438E-02    0.349E-01
RMM:   5    -0.233090694376E+04    0.97814E-03   -0.17135E-03  4566   0.194E-02    0.227E-01
RMM:   6    -0.233090669591E+04    0.24785E-03   -0.17210E-03  5271   0.208E-02    0.188E-01
RMM:   7    -0.233090632088E+04    0.37503E-03   -0.94923E-04  5047   0.160E-02    0.486E-02
RMM:   8    -0.233090631331E+04    0.75775E-05   -0.12187E-04  3126   0.932E-03    0.589E-02
RMM:   9    -0.233090627001E+04    0.43296E-04   -0.53965E-05  2975   0.515E-03    0.251E-02
RMM:  10    -0.233090625790E+04    0.12106E-04   -0.29381E-05  2971   0.379E-03    0.839E-03
RMM:  11    -0.233090625681E+04    0.10980E-05   -0.90896E-06  2934   0.276E-03
  34 F= -.23523691E+04 E0= -.23523691E+04  d E =-.151055E-01  mag=     4.0000
       N       E                     dE             d eps       ncg     rms          rms(c)
DAV:   1    -0.233089888481E+04    0.73731E-02   -0.40172E-01  4784   0.556E-01    0.186E-01
RMM:   2    -0.233090607807E+04   -0.71933E-02   -0.76535E-02  6472   0.132E-01    0.102E-01
RMM:   3    -0.233090669515E+04   -0.61708E-03   -0.84460E-03  5013   0.530E-02    0.725E-02
RMM:   4    -0.233090671311E+04   -0.17954E-04   -0.71264E-04  3158   0.111E-02    0.656E-02
RMM:   5    -0.233090667285E+04    0.40253E-04   -0.10991E-04  3062   0.683E-03    0.497E-02
RMM:   6    -0.233090667749E+04   -0.46309E-05   -0.82045E-05  3054   0.577E-03
  35 F= -.23523697E+04 E0= -.23523697E+04  d E =-.157063E-01  mag=     4.0000
       N       E                     dE             d eps       ncg     rms          rms(c)
DAV:   1    -0.233080693431E+04    0.99739E-01   -0.57825E+00  4528   0.219E+00    0.727E-01
RMM:   2    -0.233091469383E+04   -0.10776E+00   -0.11129E+00  6464   0.519E-01    0.681E-01
RMM:   3    -0.233092521122E+04   -0.10517E-01   -0.12951E-01  6151   0.213E-01    0.740E-01
RMM:   4    -0.233092026902E+04    0.49422E-02   -0.11463E-02  6096   0.474E-02    0.288E-01
RMM:   5    -0.233091983635E+04    0.43266E-03   -0.21382E-03  5287   0.208E-02    0.243E-01
RMM:   6    -0.233091910314E+04    0.73321E-03   -0.14909E-03  5393   0.215E-02    0.109E-01
RMM:   7    -0.233091898061E+04    0.12253E-03   -0.67839E-04  5221   0.159E-02    0.467E-02
RMM:   8    -0.233091898336E+04   -0.27499E-05   -0.10102E-04  3056   0.803E-03    0.480E-02
RMM:   9    -0.233091894860E+04    0.34758E-04   -0.33043E-05  2972   0.472E-03    0.230E-02
RMM:  10    -0.233091893999E+04    0.86085E-05   -0.20930E-05  2947   0.365E-03
  36 F= -.23523817E+04 E0= -.23523817E+04  d E =-.120574E-01  mag=     4.0000
       N       E                     dE             d eps       ncg     rms          rms(c)
DAV:   1    -0.233091753190E+04    0.14167E-02   -0.81615E-02  4992   0.261E-01    0.852E-02
RMM:   2    -0.233091902907E+04   -0.14972E-02   -0.15565E-02  6447   0.623E-02    0.720E-02
RMM:   3    -0.233091918654E+04   -0.15748E-03   -0.17582E-03  3517   0.256E-02    0.848E-02
RMM:   4    -0.233091912018E+04    0.66364E-04   -0.15899E-04  3052   0.705E-03    0.336E-02
RMM:   5    -0.233091911493E+04    0.52530E-05   -0.30552E-05  2899   0.336E-03
  37 F= -.23523819E+04 E0= -.23523819E+04  d E =-.122103E-01  mag=     4.0000
       N       E                     dE             d eps       ncg     rms          rms(c)
DAV:   1    -0.233086430924E+04    0.54811E-01   -0.33697E+00  4544   0.167E+00    0.555E-01
RMM:   2    -0.233092926011E+04   -0.64951E-01   -0.64328E-01  6518   0.397E-01    0.734E-01
RMM:   3    -0.233093146265E+04   -0.22025E-02   -0.74463E-02  6148   0.157E-01    0.507E-01
RMM:   4    -0.233092899558E+04    0.24671E-02   -0.63489E-03  5439   0.352E-02    0.205E-01
RMM:   5    -0.233092877025E+04    0.22533E-03   -0.11495E-03  5037   0.173E-02    0.188E-01
RMM:   6    -0.233092826580E+04    0.50445E-03   -0.10196E-03  5032   0.181E-02    0.695E-02
RMM:   7    -0.233092832105E+04   -0.55257E-04   -0.33100E-04  4318   0.131E-02    0.785E-02
RMM:   8    -0.233092824324E+04    0.77814E-04   -0.95831E-05  3126   0.647E-03    0.203E-02
RMM:   9    -0.233092824030E+04    0.29420E-05   -0.15774E-05  2987   0.409E-03
  38 F= -.23523905E+04 E0= -.23523905E+04  d E =-.857479E-02  mag=     4.0000
       N       E                     dE             d eps       ncg     rms          rms(c)
DAV:   1    -0.233092397582E+04    0.42674E-02   -0.24912E-01  4704   0.456E-01    0.151E-01
RMM:   2    -0.233092875880E+04   -0.47830E-02   -0.47658E-02  6476   0.108E-01    0.194E-01
RMM:   3    -0.233092896814E+04   -0.20934E-03   -0.54690E-03  4887   0.444E-02    0.142E-01
RMM:   4    -0.233092876954E+04    0.19860E-03   -0.46025E-04  3151   0.104E-02    0.526E-02
RMM:   5    -0.233092875640E+04    0.13140E-04   -0.90698E-05  3062   0.603E-03    0.511E-02
RMM:   6    -0.233092872074E+04    0.35657E-04   -0.77656E-05  3109   0.630E-03    0.191E-02
RMM:   7    -0.233092872255E+04   -0.18072E-05   -0.25666E-05  3023   0.484E-03
  39 F= -.23523908E+04 E0= -.23523908E+04  d E =-.891328E-02  mag=     4.0000
       N       E                     dE             d eps       ncg     rms          rms(c)
DAV:   1    -0.233088741684E+04    0.41304E-01   -0.27093E+00  4544   0.153E+00    0.491E-01
RMM:   2    -0.233093484594E+04   -0.47429E-01   -0.47328E-01  6435   0.349E-01    0.607E-01
RMM:   3    -0.233093682650E+04   -0.19806E-02   -0.52470E-02  6021   0.136E-01    0.440E-01
RMM:   4    -0.233093480823E+04    0.20183E-02   -0.45785E-03  5329   0.316E-02    0.161E-01
RMM:   5    -0.233093471578E+04    0.92455E-04   -0.10289E-03  5309   0.188E-02    0.161E-01
RMM:   6    -0.233093439773E+04    0.31805E-03   -0.67023E-04  5289   0.148E-02    0.783E-02
RMM:   7    -0.233093437738E+04    0.20350E-04   -0.19793E-04  3955   0.102E-02    0.496E-02
RMM:   8    -0.233093435299E+04    0.24395E-04   -0.54176E-05  2993   0.593E-03    0.239E-02
RMM:   9    -0.233093434963E+04    0.33600E-05   -0.11921E-05  2958   0.340E-03
  40 F= -.23523966E+04 E0= -.23523966E+04  d E =-.575428E-02  mag=     4.0000
       N       E                     dE             d eps       ncg     rms          rms(c)
DAV:   1    -0.233093357492E+04    0.77806E-03   -0.46736E-02  5088   0.201E-01    0.649E-02
RMM:   2    -0.233093440166E+04   -0.82674E-03   -0.82336E-03  6343   0.468E-02    0.799E-02
RMM:   3    -0.233093443672E+04   -0.35055E-04   -0.90297E-04  3171   0.181E-02    0.580E-02
RMM:   4    -0.233093440264E+04    0.34084E-04   -0.80106E-05  3021   0.539E-03    0.215E-02
RMM:   5    -0.233093439996E+04    0.26798E-05   -0.18720E-05  2958   0.318E-03
  41 F= -.23523966E+04 E0= -.23523966E+04  d E =-.582340E-02  mag=     4.0000
       N       E                     dE             d eps       ncg     rms          rms(c)
DAV:   1    -0.233090161171E+04    0.32791E-01   -0.20899E+00  4544   0.134E+00    0.406E-01
RMM:   2    -0.233093718086E+04   -0.35569E-01   -0.37438E-01  6402   0.307E-01    0.334E-01
RMM:   3    -0.233094017741E+04   -0.29965E-02   -0.39266E-02  6009   0.118E-01    0.340E-01
RMM:   4    -0.233093920723E+04    0.97018E-03   -0.35699E-03  5175   0.260E-02    0.167E-01
RMM:   5    -0.233093906352E+04    0.14371E-03   -0.66003E-04  4061   0.137E-02    0.141E-01
RMM:   6    -0.233093877669E+04    0.28683E-03   -0.54314E-04  4785   0.133E-02    0.658E-02
RMM:   7    -0.233093876511E+04    0.11582E-04   -0.25754E-04  4152   0.111E-02    0.534E-02
RMM:   8    -0.233093873396E+04    0.31147E-04   -0.57245E-05  2982   0.600E-03    0.246E-02
RMM:   9    -0.233093872371E+04    0.10251E-04   -0.10874E-05  2939   0.359E-03    0.105E-02
RMM:  10    -0.233093872102E+04    0.26909E-05   -0.93549E-06  2940   0.255E-03
  42 F= -.23524018E+04 E0= -.23524018E+04  d E =-.512913E-02  mag=     4.0000
       N       E                     dE             d eps       ncg     rms          rms(c)
DAV:   1    -0.233093022024E+04    0.85035E-02   -0.48489E-01  4560   0.647E-01    0.196E-01
RMM:   2    -0.233093846829E+04   -0.82480E-02   -0.86787E-02  6349   0.148E-01    0.161E-01
RMM:   3    -0.233093917659E+04   -0.70830E-03   -0.89923E-03  5313   0.555E-02    0.170E-01
RMM:   4    -0.233093893091E+04    0.24568E-03   -0.82531E-04  3280   0.129E-02    0.789E-02
RMM:   5    -0.233093889596E+04    0.34946E-04   -0.15660E-04  3149   0.745E-03    0.671E-02
RMM:   6    -0.233093882872E+04    0.67240E-04   -0.12411E-04  3373   0.738E-03    0.301E-02
RMM:   7    -0.233093882250E+04    0.62241E-05   -0.57679E-05  3137   0.631E-03
  43 F= -.23524023E+04 E0= -.23524022E+04  d E =-.562459E-02  mag=     4.0000
       N       E                     dE             d eps       ncg     rms          rms(c)
DAV:   1    -0.233091800189E+04    0.20827E-01   -0.14100E+00  4544   0.109E+00    0.317E-01
RMM:   2    -0.233094037171E+04   -0.22370E-01   -0.23892E-01  6497   0.244E-01    0.205E-01
RMM:   3    -0.233094221336E+04   -0.18417E-02   -0.24293E-02  5854   0.920E-02    0.196E-01
RMM:   4    -0.233094204601E+04    0.16735E-03   -0.22430E-03  3978   0.192E-02    0.136E-01
RMM:   5    -0.233094190115E+04    0.14486E-03   -0.35531E-04  3610   0.109E-02    0.105E-01
RMM:   6    -0.233094179368E+04    0.10747E-03   -0.31805E-04  3888   0.103E-02    0.683E-02
RMM:   7    -0.233094174951E+04    0.44169E-04   -0.17771E-04  4140   0.858E-03    0.276E-02
RMM:   8    -0.233094174543E+04    0.40805E-05   -0.26013E-05  2956   0.554E-03
  44 F= -.23524059E+04 E0= -.23524059E+04  d E =-.366166E-02  mag=     4.0000
       N       E                     dE             d eps       ncg     rms          rms(c)
DAV:   1    -0.233089765586E+04    0.44094E-01   -0.25416E+00  4536   0.147E+00    0.428E-01
RMM:   2    -0.233093815852E+04   -0.40503E-01   -0.43036E-01  6422   0.326E-01    0.309E-01
RMM:   3    -0.233094172321E+04   -0.35647E-02   -0.44244E-02  5985   0.122E-01    0.332E-01
RMM:   4    -0.233094091995E+04    0.80325E-03   -0.41302E-03  5155   0.263E-02    0.176E-01
RMM:   5    -0.233094072130E+04    0.19865E-03   -0.66651E-04  4202   0.135E-02    0.152E-01
RMM:   6    -0.233094045976E+04    0.26154E-03   -0.56379E-04  4413   0.130E-02    0.856E-02
RMM:   7    -0.233094039729E+04    0.62474E-04   -0.37087E-04  4697   0.113E-02    0.427E-02
RMM:   8    -0.233094037905E+04    0.18238E-04   -0.56707E-05  3005   0.695E-03    0.308E-02
RMM:   9    -0.233094036344E+04    0.15612E-04   -0.17087E-05  2946   0.375E-03    0.124E-02
RMM:  10    -0.233094035964E+04    0.38027E-05   -0.13181E-05  2976   0.270E-03
  45 F= -.23524055E+04 E0= -.23524055E+04  d E =-.327366E-02  mag=     4.0000
       N       E                     dE             d eps       ncg     rms          rms(c)
DAV:   1    -0.233092923474E+04    0.11129E-01   -0.75179E-01  4544   0.798E-01    0.232E-01
RMM:   2    -0.233094122847E+04   -0.11994E-01   -0.12688E-01  6379   0.178E-01    0.170E-01
RMM:   3    -0.233094224097E+04   -0.10125E-02   -0.12887E-02  5720   0.674E-02    0.176E-01
RMM:   4    -0.233094201278E+04    0.22820E-03   -0.12012E-03  3429   0.145E-02    0.945E-02
RMM:   5    -0.233094196528E+04    0.47497E-04   -0.20210E-04  3137   0.825E-03    0.871E-02
RMM:   6    -0.233094187076E+04    0.94523E-04   -0.18446E-04  3458   0.821E-03    0.407E-02
RMM:   7    -0.233094186052E+04    0.10236E-04   -0.87553E-05  3306   0.682E-03    0.203E-02
RMM:   8    -0.233094185898E+04    0.15423E-05   -0.17582E-05  2949   0.506E-03
  46 F= -.23524065E+04 E0= -.23524065E+04  d E =-.422935E-02  mag=     4.0000
       N       E                     dE             d eps       ncg     rms          rms(c)
DAV:   1    -0.233093160966E+04    0.10251E-01   -0.74370E-01  4544   0.811E-01    0.241E-01
RMM:   2    -0.233094421338E+04   -0.12604E-01   -0.12875E-01  6423   0.179E-01    0.254E-01
RMM:   3    -0.233094494808E+04   -0.73470E-03   -0.13462E-02  5923   0.711E-02    0.208E-01
RMM:   4    -0.233094451867E+04    0.42941E-03   -0.12538E-03  4067   0.161E-02    0.104E-01
RMM:   5    -0.233094446550E+04    0.53175E-04   -0.21929E-04  3143   0.851E-03    0.860E-02
RMM:   6    -0.233094434620E+04    0.11930E-03   -0.21204E-04  4054   0.937E-03    0.400E-02
RMM:   7    -0.233094435311E+04   -0.69127E-05   -0.10785E-04  3254   0.808E-03    0.440E-02
RMM:   8    -0.233094433178E+04    0.21331E-04   -0.31352E-05  2963   0.507E-03    0.954E-03
RMM:   9    -0.233094432975E+04    0.20287E-05   -0.60962E-06  2917   0.308E-03
  47 F= -.23524092E+04 E0= -.23524092E+04  d E =-.272262E-02  mag=     4.0000
       N       E                     dE             d eps       ncg     rms          rms(c)
DAV:   1    -0.233093049093E+04    0.13841E-01   -0.84159E-01  4568   0.863E-01    0.259E-01
RMM:   2    -0.233094486586E+04   -0.14375E-01   -0.14642E-01  6394   0.190E-01    0.281E-01
RMM:   3    -0.233094563679E+04   -0.77093E-03   -0.15337E-02  5988   0.759E-02    0.224E-01
RMM:   4    -0.233094515146E+04    0.48533E-03   -0.14461E-03  4340   0.171E-02    0.112E-01
RMM:   5    -0.233094508521E+04    0.66250E-04   -0.24913E-04  3181   0.892E-03    0.912E-02
RMM:   6    -0.233094495460E+04    0.13061E-03   -0.23537E-04  4112   0.986E-03    0.443E-02
RMM:   7    -0.233094496377E+04   -0.91711E-05   -0.13632E-04  3329   0.861E-03    0.492E-02
RMM:   8    -0.233094493681E+04    0.26959E-04   -0.38466E-05  2977   0.540E-03    0.105E-02
RMM:   9    -0.233094493427E+04    0.25386E-05   -0.71433E-06  2929   0.336E-03
  48 F= -.23524101E+04 E0= -.23524101E+04  d E =-.359498E-02  mag=     4.0000
       N       E                     dE             d eps       ncg     rms          rms(c)
DAV:   1    -0.233093523194E+04    0.97049E-02   -0.63338E-01  4544   0.735E-01    0.232E-01
RMM:   2    -0.233094733242E+04   -0.12100E-01   -0.11997E-01  6489   0.168E-01    0.301E-01
RMM:   3    -0.233094763410E+04   -0.30167E-03   -0.13046E-02  5832   0.679E-02    0.197E-01
RMM:   4    -0.233094728936E+04    0.34474E-03   -0.12420E-03  3634   0.149E-02    0.101E-01
RMM:   5    -0.233094720669E+04    0.82668E-04   -0.17355E-04  3133   0.766E-03    0.708E-02
RMM:   6    -0.233094712997E+04    0.76721E-04   -0.17375E-04  3708   0.813E-03    0.434E-02
RMM:   7    -0.233094713277E+04   -0.27980E-05   -0.95341E-05  3023   0.694E-03
  49 F= -.23524125E+04 E0= -.23524125E+04  d E =-.244991E-02  mag=     4.0000
       N       E                     dE             d eps       ncg     rms          rms(c)
DAV:   1    -0.233086695216E+04    0.80178E-01   -0.43105E+00  4528   0.192E+00    0.612E-01
RMM:   2    -0.233095008891E+04   -0.83137E-01   -0.82369E-01  6500   0.441E-01    0.802E-01
RMM:   3    -0.233095146546E+04   -0.13766E-02   -0.90328E-02  6259   0.176E-01    0.503E-01
RMM:   4    -0.233094922651E+04    0.22390E-02   -0.84774E-03  5714   0.385E-02    0.265E-01
RMM:   5    -0.233094866530E+04    0.56120E-03   -0.11792E-03  4621   0.167E-02    0.183E-01
RMM:   6    -0.233094816887E+04    0.49643E-03   -0.11556E-03  5045   0.183E-02    0.118E-01
RMM:   7    -0.233094816235E+04    0.65225E-05   -0.64470E-04  4340   0.155E-02    0.108E-01
RMM:   8    -0.233094803945E+04    0.12290E-03   -0.19162E-04  3924   0.841E-03    0.231E-02
RMM:   9    -0.233094802885E+04    0.10601E-04   -0.20888E-05  2965   0.537E-03    0.160E-02
RMM:  10    -0.233094802614E+04    0.27101E-05   -0.20330E-05  2937   0.319E-03
  50 F= -.23524141E+04 E0= -.23524141E+04  d E =-.400791E-02  mag=     4.0000
       N       E                     dE             d eps       ncg     rms          rms(c)
DAV:   1    -0.233094272743E+04    0.53014E-02   -0.30743E-01  4576   0.511E-01    0.161E-01
RMM:   2    -0.233094853456E+04   -0.58071E-02   -0.58107E-02  6484   0.117E-01    0.199E-01
RMM:   3    -0.233094875332E+04   -0.21876E-03   -0.62855E-03  5341   0.476E-02    0.142E-01
RMM:   4    -0.233094856944E+04    0.18388E-03   -0.59417E-04  3202   0.108E-02    0.702E-02
RMM:   5    -0.233094853018E+04    0.39260E-04   -0.88525E-05  3030   0.573E-03    0.495E-02
RMM:   6    -0.233094849188E+04    0.38304E-04   -0.85174E-05  3092   0.576E-03    0.303E-02
RMM:   7    -0.233094849193E+04   -0.49869E-07   -0.46235E-05  2974   0.517E-03
  51 F= -.23524144E+04 E0= -.23524144E+04  d E =-.429524E-02  mag=     4.0000
       N       E                     dE             d eps       ncg     rms          rms(c)
DAV:   1    -0.233093294777E+04    0.15544E-01   -0.89638E-01  4536   0.852E-01    0.281E-01
RMM:   2    -0.233095103407E+04   -0.18086E-01   -0.17667E-01  6291   0.198E-01    0.395E-01
RMM:   3    -0.233095131664E+04   -0.28257E-03   -0.19457E-02  5859   0.811E-02    0.236E-01
RMM:   4    -0.233095077057E+04    0.54607E-03   -0.17913E-03  4357   0.181E-02    0.102E-01
RMM:   5    -0.233095070444E+04    0.66133E-04   -0.24470E-04  3340   0.903E-03    0.916E-02
RMM:   6    -0.233095057880E+04    0.12564E-03   -0.25120E-04  4045   0.101E-02    0.410E-02
RMM:   7    -0.233095058965E+04   -0.10847E-04   -0.10192E-04  3140   0.756E-03    0.459E-02
RMM:   8    -0.233095056765E+04    0.21999E-04   -0.34254E-05  2960   0.516E-03    0.123E-02
RMM:   9    -0.233095056484E+04    0.28065E-05   -0.63032E-06  2922   0.283E-03
  52 F= -.23524169E+04 E0= -.23524169E+04  d E =-.257877E-02  mag=     4.0000
       N       E                     dE             d eps       ncg     rms          rms(c)
DAV:   1    -0.233092802407E+04    0.22544E-01   -0.11564E+00  4536   0.970E-01    0.321E-01
RMM:   2    -0.233095133939E+04   -0.23315E-01   -0.22901E-01  6417   0.227E-01    0.441E-01
RMM:   3    -0.233095183273E+04   -0.49334E-03   -0.25266E-02  5987   0.924E-02    0.272E-01
RMM:   4    -0.233095110912E+04    0.72361E-03   -0.23210E-03  4692   0.207E-02    0.116E-01
RMM:   5    -0.233095102498E+04    0.84136E-04   -0.32256E-04  3467   0.102E-02    0.104E-01
RMM:   6    -0.233095086654E+04    0.15844E-03   -0.31455E-04  4240   0.112E-02    0.464E-02
RMM:   7    -0.233095087924E+04   -0.12693E-04   -0.13380E-04  3315   0.842E-03    0.494E-02
RMM:   8    -0.233095085415E+04    0.25087E-04   -0.43378E-05  2963   0.560E-03    0.152E-02
RMM:   9    -0.233095085009E+04    0.40615E-05   -0.79191E-06  2927   0.313E-03
  53 F= -.23524178E+04 E0= -.23524178E+04  d E =-.344279E-02  mag=     4.0000
       N       E                     dE             d eps       ncg     rms          rms(c)
DAV:   1    -0.233092428768E+04    0.26566E-01   -0.14083E+00  4528   0.106E+00    0.349E-01
RMM:   2    -0.233095274285E+04   -0.28455E-01   -0.28220E-01  6376   0.246E-01    0.461E-01
RMM:   3    -0.233095389533E+04   -0.11525E-02   -0.31919E-02  5911   0.103E-01    0.307E-01
RMM:   4    -0.233095292249E+04    0.97285E-03   -0.27807E-03  4618   0.220E-02    0.114E-01
RMM:   5    -0.233095274604E+04    0.17644E-03   -0.37583E-04  3625   0.105E-02    0.808E-02
RMM:   6    -0.233095274060E+04    0.54393E-05   -0.28946E-04  3631   0.994E-03    0.873E-02
RMM:   7    -0.233095266612E+04    0.74485E-04   -0.15525E-04  3292   0.864E-03    0.250E-02
RMM:   8    -0.233095266392E+04    0.22019E-05   -0.27095E-05  2974   0.561E-03
  54 F= -.23524203E+04 E0= -.23524203E+04  d E =-.253021E-02  mag=     4.0000
       N       E                     dE             d eps       ncg     rms          rms(c)
DAV:   1    -0.233093459040E+04    0.18076E-01   -0.89609E-01  4536   0.845E-01    0.282E-01
RMM:   2    -0.233095283909E+04   -0.18249E-01   -0.17991E-01  6366   0.196E-01    0.389E-01
RMM:   3    -0.233095337743E+04   -0.53834E-03   -0.20257E-02  5737   0.790E-02    0.245E-01
RMM:   4    -0.233095276410E+04    0.61333E-03   -0.17694E-03  3867   0.175E-02    0.890E-02
RMM:   5    -0.233095265440E+04    0.10970E-03   -0.23082E-04  3297   0.864E-03    0.637E-02
RMM:   6    -0.233095265186E+04    0.25370E-05   -0.18299E-04  3217   0.851E-03    0.671E-02
RMM:   7    -0.233095260969E+04    0.42173E-04   -0.92632E-05  3091   0.731E-03    0.195E-02
RMM:   8    -0.233095260890E+04    0.79261E-06   -0.17941E-05  2960   0.494E-03
  55 F= -.23524209E+04 E0= -.23524209E+04  d E =-.304904E-02  mag=     4.0000
       N       E                     dE             d eps       ncg     rms          rms(c)
DAV:   1    -0.233092958570E+04    0.23024E-01   -0.12814E+00  4536   0.988E-01    0.329E-01
RMM:   2    -0.233095394607E+04   -0.24360E-01   -0.24651E-01  6396   0.229E-01    0.379E-01
RMM:   3    -0.233095568926E+04   -0.17432E-02   -0.27871E-02  5892   0.927E-02    0.314E-01
RMM:   4    -0.233095468306E+04    0.10062E-02   -0.24318E-03  4322   0.208E-02    0.105E-01
RMM:   5    -0.233095453572E+04    0.14734E-03   -0.33264E-04  3499   0.985E-03    0.658E-02
RMM:   6    -0.233095455825E+04   -0.22524E-04   -0.27536E-04  4136   0.994E-03    0.781E-02
RMM:   7    -0.233095448576E+04    0.72485E-04   -0.10641E-04  3069   0.739E-03    0.237E-02
RMM:   8    -0.233095448148E+04    0.42798E-05   -0.18660E-05  2981   0.437E-03
  56 F= -.23524233E+04 E0= -.23524233E+04  d E =-.246687E-02  mag=     4.0000
       N       E                     dE             d eps       ncg     rms          rms(c)
DAV:   1    -0.233093683826E+04    0.17647E-01   -0.91314E-01  4544   0.834E-01    0.278E-01
RMM:   2    -0.233095423545E+04   -0.17397E-01   -0.17605E-01  6327   0.193E-01    0.324E-01
RMM:   3    -0.233095541950E+04   -0.11840E-02   -0.19448E-02  5725   0.761E-02    0.268E-01
RMM:   4    -0.233095469614E+04    0.72336E-03   -0.17276E-03  3765   0.175E-02    0.888E-02
RMM:   5    -0.233095459037E+04    0.10577E-03   -0.23426E-04  3257   0.867E-03    0.553E-02
RMM:   6    -0.233095459766E+04   -0.72943E-05   -0.19684E-04  3815   0.883E-03    0.596E-02
RMM:   7    -0.233095455504E+04    0.42627E-04   -0.72835E-05  3032   0.669E-03    0.190E-02
RMM:   8    -0.233095455227E+04    0.27686E-05   -0.12809E-05  2970   0.386E-03
  57 F= -.23524239E+04 E0= -.23524239E+04  d E =-.304266E-02  mag=     4.0000
       N       E                     dE             d eps       ncg     rms          rms(c)
DAV:   1    -0.233093829359E+04    0.16261E-01   -0.96349E-01  4536   0.864E-01    0.292E-01
RMM:   2    -0.233095597880E+04   -0.17685E-01   -0.18042E-01  6365   0.200E-01    0.301E-01
RMM:   3    -0.233095745327E+04   -0.14745E-02   -0.19717E-02  5940   0.797E-02    0.279E-01
RMM:   4    -0.233095667310E+04    0.78017E-03   -0.18044E-03  4236   0.184E-02    0.999E-02
RMM:   5    -0.233095663623E+04    0.36870E-04   -0.27805E-04  3108   0.904E-03    0.897E-02
RMM:   6    -0.233095653960E+04    0.96636E-04   -0.18292E-04  3302   0.841E-03    0.488E-02
RMM:   7    -0.233095652136E+04    0.18234E-04   -0.10463E-04  3482   0.761E-03    0.162E-02
RMM:   8    -0.233095651905E+04    0.23061E-05   -0.11835E-05  2962   0.487E-03
  58 F= -.23524259E+04 E0= -.23524259E+04  d E =-.204417E-02  mag=     4.0000
       N       E                     dE             d eps       ncg     rms          rms(c)
DAV:   1    -0.233093975091E+04    0.16770E-01   -0.91282E-01  4544   0.842E-01    0.284E-01
RMM:   2    -0.233095645934E+04   -0.16708E-01   -0.17089E-01  6362   0.195E-01    0.286E-01
RMM:   3    -0.233095793359E+04   -0.14743E-02   -0.18717E-02  5873   0.769E-02    0.274E-01
RMM:   4    -0.233095718353E+04    0.75005E-03   -0.17112E-03  4065   0.179E-02    0.967E-02
RMM:   5    -0.233095714070E+04    0.42835E-04   -0.26398E-04  3106   0.883E-03    0.849E-02
RMM:   6    -0.233095706100E+04    0.79699E-04   -0.17630E-04  3206   0.819E-03    0.500E-02
RMM:   7    -0.233095704070E+04    0.20297E-04   -0.10082E-04  3452   0.757E-03    0.188E-02
RMM:   8    -0.233095703942E+04    0.12817E-05   -0.17641E-05  2954   0.510E-03
  59 F= -.23524265E+04 E0= -.23524265E+04  d E =-.264414E-02  mag=     4.0000
       N       E                     dE             d eps       ncg     rms          rms(c)
DAV:   1    -0.233093836781E+04    0.18673E-01   -0.11378E+00  4536   0.938E-01    0.316E-01
RMM:   2    -0.233095901294E+04   -0.20645E-01   -0.20874E-01  6415   0.218E-01    0.348E-01
RMM:   3    -0.233096046049E+04   -0.14475E-02   -0.22788E-02  6019   0.859E-02    0.292E-01
RMM:   4    -0.233095960663E+04    0.85386E-03   -0.20837E-03  4460   0.197E-02    0.109E-01
RMM:   5    -0.233095956383E+04    0.42797E-04   -0.31745E-04  3141   0.938E-03    0.964E-02
RMM:   6    -0.233095944017E+04    0.12367E-03   -0.21087E-04  3534   0.896E-03    0.475E-02
RMM:   7    -0.233095942492E+04    0.15247E-04   -0.11591E-04  3550   0.777E-03    0.161E-02
RMM:   8    -0.233095942240E+04    0.25192E-05   -0.11889E-05  2958   0.488E-03
  60 F= -.23524286E+04 E0= -.23524286E+04  d E =-.208278E-02  mag=     4.0000
       N       E                     dE             d eps       ncg     rms          rms(c)
DAV:   1    -0.233094061283E+04    0.18812E-01   -0.10615E+00  4544   0.907E-01    0.305E-01
RMM:   2    -0.233095985082E+04   -0.19238E-01   -0.19467E-01  6441   0.210E-01    0.330E-01
RMM:   3    -0.233096126461E+04   -0.14138E-02   -0.21637E-02  6001   0.825E-02    0.281E-01
RMM:   4    -0.233096046422E+04    0.80039E-03   -0.19436E-03  4309   0.191E-02    0.106E-01
RMM:   5    -0.233096042232E+04    0.41896E-04   -0.29206E-04  3135   0.913E-03    0.921E-02
RMM:   6    -0.233096030598E+04    0.11635E-03   -0.19513E-04  3494   0.871E-03    0.464E-02
RMM:   7    -0.233096029242E+04    0.13556E-04   -0.11292E-04  3519   0.763E-03    0.214E-02
RMM:   8    -0.233096029032E+04    0.20999E-05   -0.19037E-05  2954   0.520E-03
  61 F= -.23524292E+04 E0= -.23524292E+04  d E =-.266508E-02  mag=     4.0000
       N       E                     dE             d eps       ncg     rms          rms(c)
DAV:   1    -0.233094550891E+04    0.14784E-01   -0.10091E+00  4536   0.877E-01    0.289E-01
RMM:   2    -0.233096224765E+04   -0.16739E-01   -0.16430E-01  6319   0.197E-01    0.376E-01
RMM:   3    -0.233096278154E+04   -0.53389E-03   -0.17942E-02  5895   0.787E-02    0.251E-01
RMM:   4    -0.233096212664E+04    0.65490E-03   -0.16095E-03  4321   0.180E-02    0.885E-02
RMM:   5    -0.233096209203E+04    0.34613E-04   -0.26584E-04  3207   0.929E-03    0.864E-02
RMM:   6    -0.233096201425E+04    0.77782E-04   -0.18798E-04  3335   0.880E-03    0.472E-02
RMM:   7    -0.233096200008E+04    0.14164E-04   -0.76043E-05  3135   0.729E-03    0.206E-02
RMM:   8    -0.233096199712E+04    0.29661E-05   -0.17145E-05  2949   0.511E-03
  62 F= -.23524307E+04 E0= -.23524307E+04  d E =-.147652E-02  mag=     4.0000
       N       E                     dE             d eps       ncg     rms          rms(c)
DAV:   1    -0.233095859083E+04    0.34093E-02   -0.22235E-01  4608   0.412E-01    0.137E-01
RMM:   2    -0.233096230375E+04   -0.37129E-02   -0.36339E-02  6302   0.930E-02    0.181E-01
RMM:   3    -0.233096240081E+04   -0.97063E-04   -0.39176E-03  4282   0.364E-02    0.118E-01
RMM:   4    -0.233096225863E+04    0.14218E-03   -0.35739E-04  3094   0.939E-03    0.422E-02
RMM:   5    -0.233096225456E+04    0.40709E-05   -0.61302E-05  3003   0.505E-03
  63 F= -.23524308E+04 E0= -.23524308E+04  d E =-.162700E-02  mag=     4.0000
       N       E                     dE             d eps       ncg     rms          rms(c)
DAV:   1    -0.233094816847E+04    0.14090E-01   -0.10683E+00  4544   0.911E-01    0.282E-01
RMM:   2    -0.233096434994E+04   -0.16181E-01   -0.15611E-01  6377   0.201E-01    0.398E-01
RMM:   3    -0.233096439425E+04   -0.44315E-04   -0.16178E-02  5819   0.767E-02    0.232E-01
RMM:   4    -0.233096384021E+04    0.55404E-03   -0.15072E-03  4440   0.179E-02    0.916E-02
RMM:   5    -0.233096379476E+04    0.45459E-04   -0.26609E-04  3673   0.101E-02    0.852E-02
RMM:   6    -0.233096371541E+04    0.79345E-04   -0.23068E-04  3953   0.981E-03    0.445E-02
RMM:   7    -0.233096370310E+04    0.12307E-04   -0.61136E-05  3031   0.674E-03    0.234E-02
RMM:   8    -0.233096369865E+04    0.44494E-05   -0.16510E-05  2937   0.464E-03
  64 F= -.23524322E+04 E0= -.23524322E+04  d E =-.135733E-02  mag=     4.0000
       N       E                     dE             d eps       ncg     rms          rms(c)
DAV:   1    -0.233096236081E+04    0.13423E-02   -0.96926E-02  4688   0.274E-01    0.890E-02
RMM:   2    -0.233096388506E+04   -0.15242E-02   -0.14329E-02  6368   0.610E-02    0.138E-01
RMM:   3    -0.233096383298E+04    0.52077E-04   -0.14885E-03  3365   0.233E-02    0.683E-02
RMM:   4    -0.233096378615E+04    0.46830E-04   -0.14154E-04  3062   0.658E-03    0.261E-02
RMM:   5    -0.233096378389E+04    0.22632E-05   -0.23566E-05  2962   0.364E-03
  65 F= -.23524323E+04 E0= -.23524323E+04  d E =-.141708E-02  mag=     4.0000
       N       E                     dE             d eps       ncg     rms          rms(c)
DAV:   1    -0.233095192879E+04    0.11857E-01   -0.10344E+00  4544   0.888E-01    0.267E-01
RMM:   2    -0.233096569952E+04   -0.13771E-01   -0.13329E-01  6296   0.191E-01    0.364E-01
RMM:   3    -0.233096577254E+04   -0.73014E-04   -0.13996E-02  5674   0.733E-02    0.226E-01
RMM:   4    -0.233096524032E+04    0.53222E-03   -0.13002E-03  4435   0.171E-02    0.882E-02
RMM:   5    -0.233096523471E+04    0.56050E-05   -0.26458E-04  3310   0.984E-03    0.940E-02
RMM:   6    -0.233096511573E+04    0.11898E-03   -0.21613E-04  4108   0.957E-03    0.372E-02
RMM:   7    -0.233096511085E+04    0.48831E-05   -0.58012E-05  3076   0.677E-03
  66 F= -.23524336E+04 E0= -.23524336E+04  d E =-.130675E-02  mag=     4.0000
       N       E                     dE             d eps       ncg     rms          rms(c)
DAV:   1    -0.233096241835E+04    0.26974E-02   -0.21525E-01  4576   0.405E-01    0.126E-01
RMM:   2    -0.233096529483E+04   -0.28765E-02   -0.28011E-02  6410   0.887E-02    0.166E-01
RMM:   3    -0.233096533127E+04   -0.36438E-04   -0.29411E-03  4209   0.342E-02    0.111E-01
RMM:   4    -0.233096520340E+04    0.12788E-03   -0.26952E-04  3081   0.908E-03    0.388E-02
RMM:   5    -0.233096520330E+04    0.92608E-07   -0.60032E-05  2998   0.521E-03
  67 F= -.23524336E+04 E0= -.23524336E+04  d E =-.139068E-02  mag=     4.0000
       N       E                     dE             d eps       ncg     rms          rms(c)
DAV:   1    -0.233095438618E+04    0.10817E-01   -0.11411E+00  4528   0.920E-01    0.263E-01
RMM:   2    -0.233096666453E+04   -0.12278E-01   -0.12251E-01  6272   0.189E-01    0.293E-01
RMM:   3    -0.233096736725E+04   -0.70272E-03   -0.12722E-02  5613   0.732E-02    0.255E-01
RMM:   4    -0.233096667036E+04    0.69689E-03   -0.11960E-03  4360   0.174E-02    0.862E-02
RMM:   5    -0.233096667045E+04   -0.92536E-07   -0.30222E-04  3413   0.104E-02    0.952E-02
RMM:   6    -0.233096657437E+04    0.96081E-04   -0.20806E-04  3740   0.943E-03    0.392E-02
RMM:   7    -0.233096656951E+04    0.48630E-05   -0.48874E-05  3029   0.656E-03
  68 F= -.23524349E+04 E0= -.23524349E+04  d E =-.125804E-02  mag=     4.0000
       N       E                     dE             d eps       ncg     rms          rms(c)
DAV:   1    -0.233096125751E+04    0.53169E-02   -0.51371E-01  4544   0.617E-01    0.181E-01
RMM:   2    -0.233096680215E+04   -0.55446E-02   -0.55570E-02  6288   0.128E-01    0.196E-01
RMM:   3    -0.233096715166E+04   -0.34950E-03   -0.57181E-03  5137   0.500E-02    0.179E-01
RMM:   4    -0.233096681378E+04    0.33788E-03   -0.54122E-04  3255   0.122E-02    0.557E-02
RMM:   5    -0.233096681021E+04    0.35674E-05   -0.12833E-04  3085   0.754E-03    0.570E-02
RMM:   6    -0.233096677839E+04    0.31824E-04   -0.82249E-05  3030   0.681E-03    0.299E-02
RMM:   7    -0.233096677307E+04    0.53176E-05   -0.25867E-05  2984   0.527E-03
  69 F= -.23524350E+04 E0= -.23524350E+04  d E =-.138992E-02  mag=     4.0000
       N       E                     dE             d eps       ncg     rms          rms(c)
DAV:   1    -0.233095863801E+04    0.81404E-02   -0.94618E-01  4528   0.825E-01    0.232E-01
RMM:   2    -0.233096808067E+04   -0.94427E-02   -0.95739E-02  6395   0.168E-01    0.235E-01
RMM:   3    -0.233096879180E+04   -0.71112E-03   -0.95053E-03  5450   0.647E-02    0.237E-01
RMM:   4    -0.233096819411E+04    0.59769E-03   -0.93178E-04  3789   0.155E-02    0.765E-02
RMM:   5    -0.233096816452E+04    0.29588E-04   -0.21890E-04  3326   0.925E-03    0.695E-02
RMM:   6    -0.233096812234E+04    0.42184E-04   -0.15726E-04  3268   0.863E-03    0.390E-02
RMM:   7    -0.233096811274E+04    0.95985E-05   -0.40760E-05  3011   0.608E-03
  70 F= -.23524362E+04 E0= -.23524362E+04  d E =-.115326E-02  mag=     4.0000
       N       E                     dE             d eps       ncg     rms          rms(c)
DAV:   1    -0.233096361487E+04    0.45075E-02   -0.47657E-01  4536   0.585E-01    0.166E-01
RMM:   2    -0.233096835520E+04   -0.47403E-02   -0.48256E-02  6427   0.120E-01    0.163E-01
RMM:   3    -0.233096874466E+04   -0.38946E-03   -0.48997E-03  4812   0.464E-02    0.169E-01
RMM:   4    -0.233096843836E+04    0.30630E-03   -0.47074E-04  3221   0.115E-02    0.549E-02
RMM:   5    -0.233096842994E+04    0.84260E-05   -0.11298E-04  3047   0.709E-03    0.547E-02
RMM:   6    -0.233096840405E+04    0.25887E-04   -0.78106E-05  3006   0.637E-03    0.294E-02
RMM:   7    -0.233096839879E+04    0.52556E-05   -0.25132E-05  2984   0.492E-03
  71 F= -.23524363E+04 E0= -.23524363E+04  d E =-.130838E-02  mag=     4.0000
       N       E                     dE             d eps       ncg     rms          rms(c)
DAV:   1    -0.233096015400E+04    0.82500E-02   -0.10020E+00  4528   0.846E-01    0.249E-01
RMM:   2    -0.233096967115E+04   -0.95171E-02   -0.98340E-02  6289   0.173E-01    0.207E-01
RMM:   3    -0.233097062906E+04   -0.95791E-03   -0.95866E-03  5604   0.676E-02    0.258E-01
RMM:   4    -0.233096992522E+04    0.70384E-03   -0.96081E-04  4032   0.164E-02    0.786E-02
RMM:   5    -0.233096984820E+04    0.77017E-04   -0.24801E-04  3900   0.105E-02    0.401E-02
RMM:   6    -0.233096987582E+04   -0.27613E-04   -0.12667E-04  3226   0.853E-03    0.552E-02
RMM:   7    -0.233096983915E+04    0.36662E-04   -0.43998E-05  2979   0.623E-03    0.132E-02
RMM:   8    -0.233096983684E+04    0.23102E-05   -0.74326E-06  2924   0.313E-03
  72 F= -.23524375E+04 E0= -.23524375E+04  d E =-.118022E-02  mag=     4.0000
       N       E                     dE             d eps       ncg     rms          rms(c)
DAV:   1    -0.233096815024E+04    0.16889E-02   -0.19563E-01  4576   0.374E-01    0.111E-01
RMM:   2    -0.233097003529E+04   -0.18851E-02   -0.19237E-02  6179   0.765E-02    0.104E-01
RMM:   3    -0.233097019761E+04   -0.16232E-03   -0.19196E-03  3825   0.294E-02    0.113E-01
RMM:   4    -0.233097006139E+04    0.13622E-03   -0.18874E-04  3068   0.825E-03    0.352E-02
RMM:   5    -0.233097005244E+04    0.89507E-05   -0.54605E-05  3008   0.534E-03
  73 F= -.23524376E+04 E0= -.23524376E+04  d E =-.128271E-02  mag=     4.0000
       N       E                     dE             d eps       ncg     rms          rms(c)
DAV:   1    -0.233096396766E+04    0.60937E-02   -0.78331E-01  4536   0.739E-01    0.219E-01
RMM:   2    -0.233097164270E+04   -0.76750E-02   -0.77288E-02  6276   0.155E-01    0.234E-01
RMM:   3    -0.233097208757E+04   -0.44486E-03   -0.77041E-03  5554   0.598E-02    0.211E-01
RMM:   4    -0.233097162952E+04    0.45805E-03   -0.74301E-04  3772   0.144E-02    0.765E-02
RMM:   5    -0.233097162808E+04    0.14409E-05   -0.23247E-04  3223   0.950E-03    0.793E-02
RMM:   6    -0.233097155662E+04    0.71458E-04   -0.17557E-04  3686   0.889E-03    0.305E-02
RMM:   7    -0.233097155830E+04   -0.16797E-05   -0.38442E-05  3000   0.609E-03
  74 F= -.23524388E+04 E0= -.23524388E+04  d E =-.117706E-02  mag=     4.0000
       N       E                     dE             d eps       ncg     rms          rms(c)
DAV:   1    -0.233096699577E+04    0.45608E-02   -0.51771E-01  4536   0.601E-01    0.180E-01
RMM:   2    -0.233097208301E+04   -0.50872E-02   -0.51475E-02  6252   0.127E-01    0.184E-01
RMM:   3    -0.233097243207E+04   -0.34906E-03   -0.49567E-03  5338   0.487E-02    0.182E-01
RMM:   4    -0.233097207944E+04    0.35263E-03   -0.48805E-04  3310   0.120E-02    0.567E-02
RMM:   5    -0.233097205822E+04    0.21225E-04   -0.13813E-04  3193   0.805E-03    0.482E-02
RMM:   6    -0.233097204568E+04    0.12541E-04   -0.95009E-05  3062   0.742E-03    0.334E-02
RMM:   7    -0.233097203574E+04    0.99348E-05   -0.23384E-05  2954   0.525E-03
  75 F= -.23524390E+04 E0= -.23524390E+04  d E =-.138901E-02  mag=     4.0000
       N       E                     dE             d eps       ncg     rms          rms(c)
DAV:   1    -0.233096806799E+04    0.39777E-02   -0.58153E-01  4536   0.635E-01    0.181E-01
RMM:   2    -0.233097359127E+04   -0.55233E-02   -0.53654E-02  6360   0.130E-01    0.238E-01
RMM:   3    -0.233097361305E+04   -0.21782E-04   -0.50928E-03  5177   0.485E-02    0.162E-01
RMM:   4    -0.233097334059E+04    0.27246E-03   -0.50409E-04  3335   0.118E-02    0.596E-02
RMM:   5    -0.233097333870E+04    0.18948E-05   -0.13773E-04  3165   0.770E-03    0.631E-02
RMM:   6    -0.233097328961E+04    0.49085E-04   -0.11447E-04  3248   0.769E-03    0.225E-02
RMM:   7    -0.233097328794E+04    0.16727E-05   -0.21773E-05  2980   0.521E-03
  76 F= -.23524400E+04 E0= -.23524400E+04  d E =-.952161E-03  mag=     4.0000
       N       E                     dE             d eps       ncg     rms          rms(c)
DAV:   1    -0.233096304476E+04    0.10245E-01   -0.12372E+00  4528   0.925E-01    0.265E-01
RMM:   2    -0.233097485929E+04   -0.11815E-01   -0.11373E-01  6327   0.188E-01    0.359E-01
RMM:   3    -0.233097480192E+04    0.57373E-04   -0.11176E-02  5517   0.715E-02    0.230E-01
RMM:   4    -0.233097425009E+04    0.55183E-03   -0.10998E-03  4300   0.168E-02    0.893E-02
RMM:   5    -0.233097424943E+04    0.65443E-06   -0.28024E-04  3519   0.102E-02    0.932E-02
RMM:   6    -0.233097413623E+04    0.11320E-03   -0.24746E-04  4216   0.103E-02    0.362E-02
RMM:   7    -0.233097414254E+04   -0.63077E-05   -0.62151E-05  3010   0.665E-03
  77 F= -.23524404E+04 E0= -.23524404E+04  d E =-.137142E-02  mag=     4.0000
       N       E                     dE             d eps       ncg     rms          rms(c)
DAV:   1    -0.233097059457E+04    0.35417E-02   -0.56939E-01  4528   0.631E-01    0.181E-01
RMM:   2    -0.233097573403E+04   -0.51395E-02   -0.49403E-02  6187   0.127E-01    0.239E-01
RMM:   3    -0.233097569021E+04    0.43822E-04   -0.47187E-03  5025   0.481E-02    0.159E-01
RMM:   4    -0.233097543372E+04    0.25649E-03   -0.47494E-04  3310   0.118E-02    0.590E-02
RMM:   5    -0.233097543847E+04   -0.47481E-05   -0.12974E-04  3154   0.775E-03    0.636E-02
RMM:   6    -0.233097538800E+04    0.50462E-04   -0.10684E-04  3286   0.757E-03    0.250E-02
RMM:   7    -0.233097539241E+04   -0.44051E-05   -0.32202E-05  2965   0.558E-03
  78 F= -.23524414E+04 E0= -.23524414E+04  d E =-.105229E-02  mag=     4.0000
       N       E                     dE             d eps       ncg     rms          rms(c)
DAV:   1    -0.233095547687E+04    0.19911E-01   -0.25100E+00  4528   0.132E+00    0.376E-01
RMM:   2    -0.233097824069E+04   -0.22764E-01   -0.21748E-01  6147   0.264E-01    0.517E-01
RMM:   3    -0.233097782254E+04    0.41814E-03   -0.20288E-02  5696   0.986E-02    0.326E-01
RMM:   4    -0.233097675229E+04    0.10702E-02   -0.21189E-03  5070   0.235E-02    0.125E-01
RMM:   5    -0.233097675494E+04   -0.26511E-05   -0.55190E-04  4403   0.138E-02    0.132E-01
RMM:   6    -0.233097653132E+04    0.22362E-03   -0.48335E-04  4807   0.134E-02    0.517E-02
RMM:   7    -0.233097654808E+04   -0.16752E-04   -0.12408E-04  3050   0.911E-03    0.531E-02
RMM:   8    -0.233097651434E+04    0.33734E-04   -0.37563E-05  2971   0.486E-03    0.142E-02
RMM:   9    -0.233097651181E+04    0.25301E-05   -0.74184E-06  2941   0.275E-03
  79 F= -.23524421E+04 E0= -.23524421E+04  d E =-.175855E-02  mag=     4.0000
       N       E                     dE             d eps       ncg     rms          rms(c)
DAV:   1    -0.233096897008E+04    0.75443E-02   -0.10462E+00  4528   0.846E-01    0.246E-01
RMM:   2    -0.233097854981E+04   -0.95797E-02   -0.91457E-02  6085   0.171E-01    0.335E-01
RMM:   3    -0.233097839620E+04    0.15361E-03   -0.87833E-03  5393   0.635E-02    0.212E-01
RMM:   4    -0.233097793718E+04    0.45901E-03   -0.89975E-04  4216   0.154E-02    0.816E-02
RMM:   5    -0.233097795251E+04   -0.15323E-04   -0.23983E-04  3467   0.973E-03    0.922E-02
RMM:   6    -0.233097784531E+04    0.10719E-03   -0.20524E-04  3988   0.965E-03    0.346E-02
RMM:   7    -0.233097785182E+04   -0.65055E-05   -0.52217E-05  2997   0.653E-03
  80 F= -.23524433E+04 E0= -.23524433E+04  d E =-.117804E-02  mag=     4.0000
       N       E                     dE             d eps       ncg     rms          rms(c)
DAV:   1    -0.233097046374E+04    0.73816E-02   -0.90174E-01  4528   0.786E-01    0.230E-01
RMM:   2    -0.233097864132E+04   -0.81776E-02   -0.79093E-02  6135   0.160E-01    0.295E-01
RMM:   3    -0.233097865768E+04   -0.16363E-04   -0.74466E-03  5322   0.602E-02    0.208E-01
RMM:   4    -0.233097822000E+04    0.43769E-03   -0.76958E-04  3908   0.147E-02    0.762E-02
RMM:   5    -0.233097823667E+04   -0.16673E-04   -0.21853E-04  3385   0.937E-03    0.862E-02
RMM:   6    -0.233097814490E+04    0.91767E-04   -0.17596E-04  3762   0.916E-03    0.322E-02
RMM:   7    -0.233097815136E+04   -0.64605E-05   -0.48797E-05  2987   0.628E-03
  81 F= -.23524435E+04 E0= -.23524435E+04  d E =-.132748E-02  mag=     4.0000
       N       E                     dE             d eps       ncg     rms          rms(c)
DAV:   1    -0.233097136183E+04    0.67831E-02   -0.91847E-01  4528   0.789E-01    0.229E-01
RMM:   2    -0.233097963205E+04   -0.82702E-02   -0.82065E-02  6232   0.162E-01    0.257E-01
RMM:   3    -0.233097996031E+04   -0.32826E-03   -0.76149E-03  5359   0.592E-02    0.220E-01
RMM:   4    -0.233097946086E+04    0.49945E-03   -0.80999E-04  3843   0.149E-02    0.832E-02
RMM:   5    -0.233097947430E+04   -0.13437E-04   -0.22925E-04  3238   0.930E-03    0.905E-02
RMM:   6    -0.233097937330E+04    0.10100E-03   -0.17966E-04  3689   0.930E-03    0.289E-02
RMM:   7    -0.233097937864E+04   -0.53401E-05   -0.43381E-05  3006   0.616E-03
  82 F= -.23524445E+04 E0= -.23524445E+04  d E =-.994164E-03  mag=     4.0000
       N       E                     dE             d eps       ncg     rms          rms(c)
DAV:   1    -0.233097631607E+04    0.30572E-02   -0.37797E-01  4560   0.506E-01    0.148E-01
RMM:   2    -0.233097971438E+04   -0.33983E-02   -0.33804E-02  6287   0.104E-01    0.163E-01
RMM:   3    -0.233097986952E+04   -0.15513E-03   -0.32337E-03  4416   0.387E-02    0.144E-01
RMM:   4    -0.233097965770E+04    0.21182E-03   -0.33624E-04  3169   0.104E-02    0.538E-02
RMM:   5    -0.233097966359E+04   -0.58954E-05   -0.98292E-05  3036   0.651E-03
[...]
RMM:   7    -0.233104724279E+04   -0.91516E-06   -0.24684E-05  2954   0.512E-03
 174 F= -.23524945E+04 E0= -.23524945E+04  d E =-.583296E-03  mag=     4.0000
       N       E                     dE             d eps       ncg     rms          rms(c)
DAV:   1    -0.233104648999E+04    0.75188E-03   -0.14521E-01  4544   0.312E-01    0.103E-01
RMM:   2    -0.233104798565E+04   -0.14957E-02   -0.13847E-02  6223   0.652E-02    0.144E-01
RMM:   3    -0.233104789353E+04    0.92111E-04   -0.13379E-03  3567   0.243E-02    0.814E-02
RMM:   4    -0.233104783614E+04    0.57398E-04   -0.15395E-04  3061   0.716E-03    0.399E-02
RMM:   5    -0.233104782785E+04    0.82859E-05   -0.39060E-05  2972   0.441E-03
 175 F= -.23524950E+04 E0= -.23524950E+04  d E =-.456169E-03  mag=     4.0000
       N       E                     dE             d eps       ncg     rms          rms(c)
DAV:   1    -0.233103692704E+04    0.10909E-01   -0.12887E+00  4528   0.930E-01    0.303E-01
RMM:   2    -0.233105017227E+04   -0.13245E-01   -0.12286E-01  6137   0.193E-01    0.429E-01
RMM:   3    -0.233104927754E+04    0.89472E-03   -0.11360E-02  5629   0.702E-02    0.234E-01
RMM:   4    -0.233104878329E+04    0.49425E-03   -0.13196E-03  4709   0.178E-02    0.117E-01
RMM:   5    -0.233104873553E+04    0.47762E-04   -0.34281E-04  3450   0.110E-02    0.101E-01
RMM:   6    -0.233104861930E+04    0.11623E-03   -0.24036E-04  4176   0.107E-02    0.434E-02
RMM:   7    -0.233104862896E+04   -0.96592E-05   -0.90662E-05  3000   0.852E-03
 176 F= -.23524954E+04 E0= -.23524954E+04  d E =-.875414E-03  mag=     4.0000
       N       E                     dE             d eps       ncg     rms          rms(c)
DAV:   1    -0.233104655066E+04    0.20686E-02   -0.31098E-01  4528   0.443E-01    0.150E-01
RMM:   2    -0.233104972822E+04   -0.31776E-02   -0.29914E-02  6148   0.941E-02    0.200E-01
RMM:   3    -0.233104961137E+04    0.11685E-03   -0.29131E-03  4203   0.362E-02    0.125E-01
RMM:   4    -0.233104946626E+04    0.14511E-03   -0.32331E-04  3158   0.980E-03    0.535E-02
RMM:   5    -0.233104946045E+04    0.58079E-05   -0.83966E-05  3021   0.634E-03
 177 F= -.23524960E+04 E0= -.23524960E+04  d E =-.648692E-03  mag=     4.0000
       N       E                     dE             d eps       ncg     rms          rms(c)
DAV:   1    -0.233104381272E+04    0.56535E-02   -0.66769E-01  4528   0.649E-01    0.217E-01
RMM:   2    -0.233105054754E+04   -0.67348E-02   -0.63769E-02  6236   0.138E-01    0.285E-01
RMM:   3    -0.233105032422E+04    0.22332E-03   -0.62369E-03  5241   0.512E-02    0.176E-01
RMM:   4    -0.233105001920E+04    0.30502E-03   -0.66664E-04  3759   0.130E-02    0.798E-02
RMM:   5    -0.233105002505E+04   -0.58535E-05   -0.19191E-04  3071   0.871E-03    0.819E-02
RMM:   6    -0.233104994350E+04    0.81548E-04   -0.13752E-04  3868   0.859E-03    0.250E-02
RMM:   7    -0.233104994514E+04   -0.16399E-05   -0.29737E-05  2988   0.587E-03
 178 F= -.23524963E+04 E0= -.23524962E+04  d E =-.866589E-03  mag=     4.0000
       N       E                     dE             d eps       ncg     rms          rms(c)
DAV:   1    -0.233104629443E+04    0.36491E-02   -0.50116E-01  4528   0.541E-01    0.185E-01
RMM:   2    -0.233105136688E+04   -0.50725E-02   -0.48206E-02  6236   0.116E-01    0.242E-01
RMM:   3    -0.233105125825E+04    0.10863E-03   -0.46380E-03  4760   0.433E-02    0.158E-01
RMM:   4    -0.233105100356E+04    0.25469E-03   -0.47912E-04  3281   0.112E-02    0.588E-02
RMM:   5    -0.233105102290E+04   -0.19337E-04   -0.12968E-04  3049   0.732E-03    0.714E-02
RMM:   6    -0.233105096241E+04    0.60489E-04   -0.97871E-05  3068   0.735E-03    0.217E-02
RMM:   7    -0.233105096361E+04   -0.12018E-05   -0.22833E-05  2993   0.516E-03
 179 F= -.23524971E+04 E0= -.23524971E+04  d E =-.802837E-03  mag=     4.0000
       N       E                     dE             d eps       ncg     rms          rms(c)
DAV:   1    -0.233104575394E+04    0.52085E-02   -0.60954E-01  4528   0.596E-01    0.204E-01
RMM:   2    -0.233105194390E+04   -0.61900E-02   -0.58782E-02  6298   0.128E-01    0.269E-01
RMM:   3    -0.233105178329E+04    0.16062E-03   -0.54505E-03  5002   0.467E-02    0.173E-01
RMM:   4    -0.233105147668E+04    0.30660E-03   -0.57737E-04  3390   0.121E-02    0.647E-02
RMM:   5    -0.233105150064E+04   -0.23955E-04   -0.15730E-04  3066   0.791E-03    0.792E-02
RMM:   6    -0.233105142575E+04    0.74891E-04   -0.11913E-04  3146   0.799E-03    0.235E-02
RMM:   7    -0.233105142617E+04   -0.41751E-06   -0.25029E-05  3001   0.547E-03
 180 F= -.23524973E+04 E0= -.23524973E+04  d E =-.102916E-02  mag=     4.0000
       N       E                     dE             d eps       ncg     rms          rms(c)
DAV:   1    -0.233104593848E+04    0.54873E-02   -0.73450E-01  4528   0.663E-01    0.228E-01
RMM:   2    -0.233105312986E+04   -0.71914E-02   -0.69224E-02  6224   0.141E-01    0.277E-01
RMM:   3    -0.233105308519E+04    0.44671E-04   -0.62792E-03  5315   0.521E-02    0.206E-01
RMM:   4    -0.233105263758E+04    0.44761E-03   -0.69328E-04  3812   0.134E-02    0.735E-02
RMM:   5    -0.233105265913E+04   -0.21557E-04   -0.20310E-04  3072   0.874E-03    0.874E-02
RMM:   6    -0.233105257028E+04    0.88857E-04   -0.14642E-04  3576   0.875E-03    0.238E-02
RMM:   7    -0.233105257053E+04   -0.25664E-06   -0.28425E-05  3007   0.582E-03
 181 F= -.23524982E+04 E0= -.23524982E+04  d E =-.921635E-03  mag=     4.0000
       N       E                     dE             d eps       ncg     rms          rms(c)
DAV:   1    -0.233105064769E+04    0.19226E-02   -0.23678E-01  4544   0.376E-01    0.130E-01
RMM:   2    -0.233105295569E+04   -0.23080E-02   -0.22287E-02  6224   0.809E-02    0.154E-01
RMM:   3    -0.233105296419E+04   -0.85023E-05   -0.21024E-03  3941   0.311E-02    0.119E-01
RMM:   4    -0.233105281667E+04    0.14752E-03   -0.22776E-04  3096   0.870E-03    0.424E-02
RMM:   5    -0.233105282346E+04   -0.67865E-05   -0.65786E-05  2993   0.555E-03
 182 F= -.23524983E+04 E0= -.23524983E+04  d E =-.104881E-02  mag=     4.0000
       N       E                     dE             d eps       ncg     rms          rms(c)
DAV:   1    -0.233104861485E+04    0.42018E-02   -0.59459E-01  4528   0.598E-01    0.205E-01
RMM:   2    -0.233105423394E+04   -0.56191E-02   -0.54407E-02  6226   0.128E-01    0.239E-01
RMM:   3    -0.233105423130E+04    0.26395E-05   -0.48830E-03  5177   0.457E-02    0.185E-01
RMM:   4    -0.233105387157E+04    0.35972E-03   -0.55446E-04  3552   0.124E-02    0.725E-02
RMM:   5    -0.233105388564E+04   -0.14070E-04   -0.18688E-04  3034   0.839E-03    0.803E-02
RMM:   6    -0.233105381134E+04    0.74309E-04   -0.12371E-04  3558   0.823E-03    0.210E-02
RMM:   7    -0.233105381300E+04   -0.16636E-05   -0.23961E-05  2981   0.562E-03
 183 F= -.23524992E+04 E0= -.23524992E+04  d E =-.837575E-03  mag=     4.0000
       N       E                     dE             d eps       ncg     rms          rms(c)
DAV:   1    -0.233105233759E+04    0.14738E-02   -0.18743E-01  4560   0.335E-01    0.117E-01
RMM:   2    -0.233105412547E+04   -0.17879E-02   -0.17208E-02  6216   0.721E-02    0.138E-01
RMM:   3    -0.233105412324E+04    0.22281E-05   -0.16123E-03  3768   0.270E-02    0.106E-01
RMM:   4    -0.233105400631E+04    0.11693E-03   -0.18100E-04  3064   0.788E-03    0.404E-02
RMM:   5    -0.233105400834E+04   -0.20334E-05   -0.53907E-05  2972   0.497E-03
 184 F= -.23524993E+04 E0= -.23524993E+04  d E =-.948230E-03  mag=     4.0000
       N       E                     dE             d eps       ncg     rms          rms(c)
DAV:   1    -0.233104888810E+04    0.51182E-02   -0.70443E-01  4528   0.664E-01    0.226E-01
RMM:   2    -0.233105558776E+04   -0.66997E-02   -0.63938E-02  6180   0.141E-01    0.280E-01
RMM:   3    -0.233105540851E+04    0.17925E-03   -0.56101E-03  5332   0.504E-02    0.194E-01
RMM:   4    -0.233105502319E+04    0.38532E-03   -0.66768E-04  4109   0.136E-02    0.841E-02
RMM:   5    -0.233105502013E+04    0.30609E-05   -0.20577E-04  3083   0.911E-03    0.830E-02
RMM:   6    -0.233105493514E+04    0.84984E-04   -0.15152E-04  4011   0.901E-03    0.221E-02
RMM:   7    -0.233105493461E+04    0.53203E-06   -0.23191E-05  2994   0.588E-03
 185 F= -.23525001E+04 E0= -.23525001E+04  d E =-.805418E-03  mag=     4.0000
       N       E                     dE             d eps       ncg     rms          rms(c)
DAV:   1    -0.233105458823E+04    0.34691E-03   -0.45617E-02  4816   0.169E-01    0.596E-02
RMM:   2    -0.233105503844E+04   -0.45021E-03   -0.41859E-03  6070   0.365E-02    0.785E-02
RMM:   3    -0.233105501432E+04    0.24117E-04   -0.39406E-04  3058   0.144E-02    0.495E-02
RMM:   4    -0.233105499131E+04    0.23009E-04   -0.46747E-05  3003   0.430E-03    0.237E-02
RMM:   5    -0.233105498883E+04    0.24886E-05   -0.14238E-05  2930   0.253E-03
 186 F= -.23525001E+04 E0= -.23525001E+04  d E =-.829126E-03  mag=     4.0000
       N       E                     dE             d eps       ncg     rms          rms(c)
DAV:   1    -0.233105012055E+04    0.48708E-02   -0.65065E-01  4528   0.665E-01    0.225E-01
RMM:   2    -0.233105659603E+04   -0.64755E-02   -0.60816E-02  6110   0.140E-01    0.290E-01
RMM:   3    -0.233105632578E+04    0.27025E-03   -0.58238E-03  5353   0.520E-02    0.185E-01
RMM:   4    -0.233105599003E+04    0.33576E-03   -0.66775E-04  4140   0.136E-02    0.887E-02
RMM:   5    -0.233105595551E+04    0.34524E-04   -0.19321E-04  3084   0.893E-03    0.730E-02
RMM:   6    -0.233105588846E+04    0.67045E-04   -0.13627E-04  4019   0.866E-03    0.250E-02
RMM:   7    -0.233105589206E+04   -0.36033E-05   -0.35037E-05  2991   0.652E-03
 187 F= -.23525009E+04 E0= -.23525009E+04  d E =-.816201E-03  mag=     4.0000
       N       E                     dE             d eps       ncg     rms          rms(c)
DAV:   1    -0.233105393202E+04    0.19564E-02   -0.21975E-01  4536   0.387E-01    0.132E-01
RMM:   2    -0.233105612199E+04   -0.21900E-02   -0.20609E-02  6097   0.814E-02    0.166E-01
RMM:   3    -0.233105604781E+04    0.74183E-04   -0.19923E-03  4086   0.325E-02    0.111E-01
RMM:   4    -0.233105592671E+04    0.12110E-03   -0.22636E-04  3094   0.885E-03    0.517E-02
RMM:   5    -0.233105591493E+04    0.11780E-04   -0.68738E-05  2980   0.578E-03    0.427E-02
RMM:   6    -0.233105589194E+04    0.22986E-04   -0.45825E-05  3009   0.546E-03    0.142E-02
RMM:   7    -0.233105589294E+04   -0.99771E-06   -0.13388E-05  2954   0.439E-03
 188 F= -.23525009E+04 E0= -.23525009E+04  d E =-.766772E-03  mag=     4.0000
       N       E                     dE             d eps       ncg     rms          rms(c)
DAV:   1    -0.233105548587E+04    0.40608E-03   -0.51559E-02  4624   0.187E-01    0.630E-02
RMM:   2    -0.233105600892E+04   -0.52306E-03   -0.47964E-03  6049   0.390E-02    0.891E-02
RMM:   3    -0.233105596682E+04    0.42104E-04   -0.46030E-04  3061   0.143E-02    0.486E-02
RMM:   4    -0.233105594347E+04    0.23343E-04   -0.52406E-05  3018   0.445E-03    0.248E-02
RMM:   5    -0.233105594039E+04    0.30824E-05   -0.15611E-05  2836   0.281E-03
 189 F= -.23525009E+04 E0= -.23525009E+04  d E =-.838473E-03  mag=     4.0000
       N       E                     dE             d eps       ncg     rms          rms(c)
DAV:   1    -0.233105213498E+04    0.38085E-02   -0.47624E-01  4528   0.557E-01    0.192E-01
RMM:   2    -0.233105737167E+04   -0.52367E-02   -0.48142E-02  6139   0.119E-01    0.277E-01
RMM:   3    -0.233105696877E+04    0.40289E-03   -0.45609E-03  4904   0.436E-02    0.149E-01
RMM:   4    -0.233105677353E+04    0.19524E-03   -0.52995E-04  3434   0.117E-02    0.780E-02
RMM:   5    -0.233105673662E+04    0.36909E-04   -0.13603E-04  3015   0.759E-03    0.601E-02
RMM:   6    -0.233105669248E+04    0.44143E-04   -0.93566E-05  3513   0.729E-03    0.233E-02
RMM:   7    -0.233105669603E+04   -0.35534E-05   -0.30518E-05  2979   0.570E-03
 190 F= -.23525017E+04 E0= -.23525017E+04  d E =-.714434E-03  mag=     4.0000
       N       E                     dE             d eps       ncg     rms          rms(c)
DAV:   1    -0.233105470334E+04    0.19891E-02   -0.21536E-01  4536   0.374E-01    0.130E-01
RMM:   2    -0.233105702223E+04   -0.23189E-02   -0.21816E-02  6243   0.805E-02    0.170E-01
RMM:   3    -0.233105692448E+04    0.97751E-04   -0.20893E-03  3941   0.305E-02    0.107E-01
RMM:   4    -0.233105682130E+04    0.10317E-03   -0.23912E-04  3100   0.867E-03    0.519E-02
RMM:   5    -0.233105680922E+04    0.12088E-04   -0.66701E-05  2978   0.551E-03    0.426E-02
RMM:   6    -0.233105678805E+04    0.21164E-04   -0.42143E-05  2990   0.516E-03    0.154E-02
RMM:   7    -0.233105679005E+04   -0.20008E-05   -0.14990E-05  2953   0.422E-03
 191 F= -.23525017E+04 E0= -.23525017E+04  d E =-.781015E-03  mag=     4.0000
       N       E                     dE             d eps       ncg     rms          rms(c)
DAV:   1    -0.233105294074E+04    0.38473E-02   -0.48207E-01  4528   0.559E-01    0.193E-01
RMM:   2    -0.233105798237E+04   -0.50416E-02   -0.48198E-02  6142   0.120E-01    0.241E-01
RMM:   3    -0.233105789827E+04    0.84109E-04   -0.46132E-03  4921   0.448E-02    0.169E-01
RMM:   4    -0.233105760684E+04    0.29142E-03   -0.50931E-04  3457   0.119E-02    0.678E-02
RMM:   5    -0.233105760450E+04    0.23384E-05   -0.14185E-04  3027   0.787E-03    0.687E-02
RMM:   6    -0.233105754509E+04    0.59420E-04   -0.10594E-04  3494   0.785E-03    0.215E-02
RMM:   7    -0.233105754681E+04   -0.17269E-05   -0.25797E-05  2991   0.559E-03
 192 F= -.23525024E+04 E0= -.23525024E+04  d E =-.691500E-03  mag=     4.0000
       N       E                     dE             d eps       ncg     rms          rms(c)
DAV:   1    -0.233105678478E+04    0.76031E-03   -0.84617E-02  4672   0.235E-01    0.819E-02
RMM:   2    -0.233105766169E+04   -0.87691E-03   -0.85104E-03  6231   0.511E-02    0.938E-02
RMM:   3    -0.233105766906E+04   -0.73772E-05   -0.82668E-04  3341   0.198E-02    0.750E-02
RMM:   4    -0.233105761229E+04    0.56777E-04   -0.92311E-05  3027   0.595E-03    0.292E-02
RMM:   5    -0.233105761170E+04    0.58311E-06   -0.27196E-05  2964   0.359E-03
 193 F= -.23525025E+04 E0= -.23525025E+04  d E =-.729290E-03  mag=     4.0000
       N       E                     dE             d eps       ncg     rms          rms(c)
DAV:   1    -0.233105430028E+04    0.33120E-02   -0.44056E-01  4528   0.546E-01    0.189E-01
RMM:   2    -0.233105875890E+04   -0.44586E-02   -0.43737E-02  6135   0.116E-01    0.207E-01
RMM:   3    -0.233105887462E+04   -0.11573E-03   -0.41181E-03  4857   0.432E-02    0.181E-01
RMM:   4    -0.233105851229E+04    0.36233E-03   -0.45516E-04  3657   0.120E-02    0.552E-02
RMM:   5    -0.233105853649E+04   -0.24205E-04   -0.15172E-04  3250   0.857E-03    0.722E-02
RMM:   6    -0.233105847770E+04    0.58787E-04   -0.99222E-05  3071   0.777E-03    0.230E-02
RMM:   7    -0.233105847454E+04    0.31672E-05   -0.17279E-05  2973   0.513E-03
 194 F= -.23525031E+04 E0= -.23525031E+04  d E =-.690887E-03  mag=     4.0000
       N       E                     dE             d eps       ncg     rms          rms(c)
DAV:   1    -0.233105697484E+04    0.15029E-02   -0.16401E-01  4544   0.333E-01    0.117E-01
RMM:   2    -0.233105867003E+04   -0.16952E-02   -0.16360E-02  6194   0.716E-02    0.137E-01
RMM:   3    -0.233105867521E+04   -0.51757E-05   -0.15387E-03  3820   0.274E-02    0.109E-01
RMM:   4    -0.233105854821E+04    0.12700E-03   -0.17119E-04  3072   0.810E-03    0.342E-02
RMM:   5    -0.233105855765E+04   -0.94390E-05   -0.53827E-05  3004   0.552E-03
 195 F= -.23525031E+04 E0= -.23525031E+04  d E =-.669647E-03  mag=     4.0000
       N       E                     dE             d eps       ncg     rms          rms(c)
DAV:   1    -0.233105819727E+04    0.35094E-03   -0.36725E-02  4624   0.158E-01    0.575E-02
RMM:   2    -0.233105861333E+04   -0.41607E-03   -0.37088E-03  6247   0.356E-02    0.873E-02
RMM:   3    -0.233105857207E+04    0.41269E-04   -0.38046E-04  3015   0.127E-02    0.452E-02
RMM:   4    -0.233105854934E+04    0.22722E-04   -0.35962E-05  3002   0.425E-03    0.147E-02
RMM:   5    -0.233105854918E+04    0.16660E-06   -0.10069E-05  2887   0.254E-03
 196 F= -.23525032E+04 E0= -.23525032E+04  d E =-.709907E-03  mag=     4.0000
       N       E                     dE             d eps       ncg     rms          rms(c)
DAV:   1    -0.233105513393E+04    0.34154E-02   -0.43788E-01  4528   0.526E-01    0.185E-01
RMM:   2    -0.233105983822E+04   -0.47043E-02   -0.44764E-02  6164   0.112E-01    0.239E-01
RMM:   3    -0.233105972206E+04    0.11616E-03   -0.41349E-03  4821   0.417E-02    0.162E-01
RMM:   4    -0.233105943780E+04    0.28426E-03   -0.44253E-04  3347   0.112E-02    0.533E-02
RMM:   5    -0.233105945992E+04   -0.22124E-04   -0.12825E-04  3075   0.771E-03    0.709E-02
RMM:   6    -0.233105939995E+04    0.59970E-04   -0.95590E-05  3046   0.772E-03    0.219E-02
RMM:   7    -0.233105939812E+04    0.18318E-05   -0.20877E-05  2990   0.513E-03
 197 F= -.23525038E+04 E0= -.23525038E+04  d E =-.639963E-03  mag=     4.0000
       N       E                     dE             d eps       ncg     rms          rms(c)
DAV:   1    -0.233105870129E+04    0.69866E-03   -0.82323E-02  4544   0.228E-01    0.810E-02
RMM:   2    -0.233105957651E+04   -0.87522E-03   -0.84837E-03  6310   0.505E-02    0.948E-02
RMM:   3    -0.233105958162E+04   -0.51143E-05   -0.79344E-04  3267   0.185E-02    0.755E-02
RMM:   4    -0.233105952160E+04    0.60023E-04   -0.86753E-05  3027   0.597E-03    0.252E-02
RMM:   5    -0.233105952553E+04   -0.39286E-05   -0.28071E-05  2967   0.365E-03
 198 F= -.23525038E+04 E0= -.23525038E+04  d E =-.676907E-03  mag=     4.0000
       N       E                     dE             d eps       ncg     rms          rms(c)
DAV:   1    -0.233105618579E+04    0.33358E-02   -0.45777E-01  4528   0.552E-01    0.193E-01
RMM:   2    -0.233106079659E+04   -0.46108E-02   -0.43919E-02  6104   0.116E-01    0.237E-01
RMM:   3    -0.233106069880E+04    0.97796E-04   -0.41357E-03  4796   0.431E-02    0.168E-01
RMM:   4    -0.233106040180E+04    0.29700E-03   -0.47166E-04  3729   0.119E-02    0.645E-02
RMM:   5    -0.233106041347E+04   -0.11668E-04   -0.14752E-04  3056   0.834E-03    0.712E-02
RMM:   6    -0.233106034964E+04    0.63825E-04   -0.10832E-04  3562   0.805E-03    0.228E-02
RMM:   7    -0.233106035323E+04   -0.35917E-05   -0.29705E-05  2973   0.583E-03
 199 F= -.23525045E+04 E0= -.23525045E+04  d E =-.692036E-03  mag=     4.0000
       N       E                     dE             d eps       ncg     rms          rms(c)
DAV:   1    -0.233105997912E+04    0.37052E-03   -0.46120E-02  4728   0.175E-01    0.625E-02
RMM:   2    -0.233106043907E+04   -0.45995E-03   -0.44465E-03  6090   0.378E-02    0.696E-02
RMM:   3    -0.233106044839E+04   -0.93217E-05   -0.45377E-04  3084   0.153E-02    0.585E-02
RMM:   4    -0.233106041314E+04    0.35254E-04   -0.49390E-05  2993   0.459E-03    0.203E-02
RMM:   5    -0.233106041441E+04   -0.12705E-05   -0.15966E-05  2945   0.284E-03
 200 F= -.23525046E+04 E0= -.23525046E+04  d E =-.710383E-03  mag=     4.0000
       N       E                     dE             d eps       ncg     rms          rms(c)
DAV:   1    -0.233105663467E+04    0.37785E-02   -0.48598E-01  4528   0.566E-01    0.195E-01
RMM:   2    -0.233106171544E+04   -0.50808E-02   -0.47483E-02  6112   0.120E-01    0.262E-01
RMM:   3    -0.233106144395E+04    0.27150E-03   -0.45794E-03  4906   0.446E-02    0.155E-01
RMM:   4    -0.233106121430E+04    0.22964E-03   -0.51867E-04  3624   0.119E-02    0.758E-02
RMM:   5    -0.233106119474E+04    0.19567E-04   -0.14202E-04  3026   0.798E-03    0.655E-02
RMM:   6    -0.233106114286E+04    0.51881E-04   -0.10762E-04  3751   0.786E-03    0.250E-02
RMM:   7    -0.233106114664E+04   -0.37835E-05   -0.33955E-05  2966   0.602E-03
 201 F= -.23525052E+04 E0= -.23525052E+04  d E =-.673697E-03  mag=     4.0000
