       N       E                     dE             d eps       ncg     rms          rms(c)
DAV:   1     0.129370587016E+05    0.12937E+05   -0.83664E+05  4488   0.144E+03
DAV:   2    -0.104021221340E+04   -0.13977E+05   -0.13367E+05  5104   0.330E+02
DAV:   3    -0.247244651905E+04   -0.14322E+04   -0.14168E+04  5400   0.112E+02
DAV:   4    -0.251787358762E+04   -0.45427E+02   -0.45179E+02  6744   0.297E+01
DAV:   5    -0.251866760719E+04   -0.79402E+00   -0.79265E+00  6040   0.343E+00    0.170E+02
RMM:   6    -0.148609975667E+04    0.10326E+04   -0.19318E+03  4433   0.383E+01    0.725E+01
RMM:   7    -0.166477283629E+04   -0.17867E+03   -0.28883E+02  5011   0.140E+01    0.541E+01
RMM:   8    -0.171195441457E+04   -0.47182E+02   -0.72923E+01  5212   0.796E+00    0.479E+01
RMM:   9    -0.176602992252E+04   -0.54076E+02   -0.67872E+01  4855   0.724E+00    0.368E+01
RMM:  10    -0.189568166208E+04   -0.12965E+03   -0.61788E+01  5285   0.760E+00    0.357E+01
RMM:  11    -0.194662250397E+04   -0.50941E+02   -0.25843E+01  5451   0.439E+00    0.216E+01
RMM:  12    -0.204293254923E+04   -0.96310E+02   -0.37440E+01  4527   0.464E+00    0.179E+01
RMM:  13    -0.212175668997E+04   -0.78824E+02   -0.38230E+01  4748   0.469E+00    0.133E+01
RMM:  14    -0.221591475346E+04   -0.94158E+02   -0.65110E+01  4494   0.588E+00    0.110E+01
RMM:  15    -0.226898191043E+04   -0.53067E+02   -0.39474E+01  4735   0.486E+00    0.745E+00
RMM:  16    -0.229475463792E+04   -0.25773E+02   -0.21641E+01  4709   0.352E+00    0.512E+00
RMM:  17    -0.230644678339E+04   -0.11692E+02   -0.11168E+01  4676   0.228E+00    0.319E+00
RMM:  18    -0.231037739758E+04   -0.39306E+01   -0.33630E+00  4941   0.135E+00    0.178E+00
RMM:  19    -0.231181462519E+04   -0.14372E+01   -0.11088E+00  5207   0.645E-01    0.101E+00
RMM:  20    -0.231226145773E+04   -0.44683E+00   -0.26350E-01  4747   0.337E-01    0.713E-01
RMM:  21    -0.231236902818E+04   -0.10757E+00   -0.61451E-02  4933   0.191E-01    0.445E-01
RMM:  22    -0.231241022144E+04   -0.41193E-01   -0.21278E-02  4543   0.103E-01    0.323E-01
RMM:  23    -0.231243758004E+04   -0.27359E-01   -0.12522E-02  4483   0.895E-02    0.143E-01
RMM:  24    -0.231244891466E+04   -0.11335E-01   -0.43586E-03  4686   0.571E-02    0.966E-02
RMM:  25    -0.231245938222E+04   -0.10468E-01   -0.30635E-03  4445   0.444E-02    0.783E-02
RMM:  26    -0.231246775860E+04   -0.83764E-02   -0.26775E-03  4441   0.423E-02    0.580E-02
RMM:  27    -0.231247041798E+04   -0.26594E-02   -0.91279E-04  4449   0.281E-02    0.373E-02
RMM:  28    -0.231247270579E+04   -0.22878E-02   -0.65624E-04  4045   0.179E-02    0.174E-02
RMM:  29    -0.231247376596E+04   -0.10602E-02   -0.29859E-04  3938   0.162E-02    0.127E-02
RMM:  30    -0.231247409004E+04   -0.32409E-03   -0.10321E-04  3718   0.868E-03    0.901E-03
RMM:  31    -0.231247428936E+04   -0.19932E-03   -0.46163E-05  3451   0.697E-03    0.523E-03
RMM:  32    -0.231247437815E+04   -0.88788E-04   -0.21668E-05  3098   0.486E-03    0.282E-03
RMM:  33    -0.231247442700E+04   -0.48852E-04   -0.12126E-05  2885   0.380E-03    0.189E-03
RMM:  34    -0.231247444583E+04   -0.18824E-04   -0.63425E-06  2773   0.285E-03    0.117E-03
RMM:  35    -0.231247445121E+04   -0.53831E-05   -0.32122E-06  2390   0.207E-03
   1 F= -.23333139E+04 E0= -.23333106E+04  d E =-.233331E+04  mag=     6.0000
       N       E                     dE             d eps       ncg     rms          rms(c)
DAV:   1    -0.231006680414E+04    0.24076E+01   -0.43299E+02  4904   0.616E+00    0.559E+00
RMM:   2    -0.231308388294E+04   -0.30171E+01   -0.33947E+01  6243   0.191E+00    0.510E+00
RMM:   3    -0.231299235197E+04    0.91531E-01   -0.27556E+00  5835   0.638E-01    0.463E+00
RMM:   4    -0.231279374460E+04    0.19861E+00   -0.42957E-01  5811   0.225E-01    0.217E+00
RMM:   5    -0.231275245010E+04    0.41295E-01   -0.15057E-01  5520   0.142E-01    0.187E+00
RMM:   6    -0.231271880402E+04    0.33646E-01   -0.88934E-02  6037   0.117E-01    0.113E+00
RMM:   7    -0.231270799366E+04    0.10810E-01   -0.27214E-02  5173   0.629E-02    0.390E-01
RMM:   8    -0.231270919439E+04   -0.12007E-02   -0.73503E-03  4861   0.404E-02    0.180E-01
RMM:   9    -0.231271227137E+04   -0.30770E-02   -0.21774E-03  4546   0.266E-02    0.803E-02
RMM:  10    -0.231271597274E+04   -0.37014E-02   -0.14979E-03  4282   0.214E-02    0.520E-02
RMM:  11    -0.231271866787E+04   -0.26951E-02   -0.12335E-03  4330   0.203E-02    0.336E-02
RMM:  12    -0.231271948354E+04   -0.81567E-03   -0.45769E-04  4415   0.143E-02    0.194E-02
RMM:  13    -0.231271982630E+04   -0.34276E-03   -0.19226E-04  3912   0.877E-03    0.118E-02
RMM:  14    -0.231271992388E+04   -0.97582E-04   -0.39908E-05  3149   0.621E-03    0.639E-03
RMM:  15    -0.231271996726E+04   -0.43384E-04   -0.20586E-05  2953   0.382E-03    0.294E-03
RMM:  16    -0.231271997930E+04   -0.12040E-04   -0.54728E-06  2832   0.326E-03    0.210E-03
RMM:  17    -0.231271998552E+04   -0.62214E-05   -0.33718E-06  2688   0.205E-03
   2 F= -.23335623E+04 E0= -.23335623E+04  d E =-.248409E+00  mag=     6.0000
       N       E                     dE             d eps       ncg     rms          rms(c)
DAV:   1    -0.231299853113E+04   -0.27855E+00   -0.12505E+02  4552   0.410E+00    0.280E+00
RMM:   2    -0.231363107152E+04   -0.63254E+00   -0.73530E+00  6201   0.907E-01    0.319E+00
RMM:   3    -0.231360737502E+04    0.23696E-01   -0.73544E-01  5644   0.353E-01    0.256E+00
RMM:   4    -0.231355370720E+04    0.53668E-01   -0.10149E-01  5760   0.114E-01    0.137E+00
RMM:   5    -0.231352912349E+04    0.24584E-01   -0.66498E-02  4929   0.810E-02    0.727E-01
RMM:   6    -0.231352160245E+04    0.75210E-02   -0.35689E-02  5406   0.739E-02    0.370E-01
RMM:   7    -0.231352098931E+04    0.61314E-03   -0.59764E-03  5263   0.335E-02    0.299E-01
RMM:   8    -0.231351979269E+04    0.11966E-02   -0.16724E-03  4509   0.183E-02    0.101E-01
RMM:   9    -0.231351951164E+04    0.28105E-03   -0.54418E-04  4369   0.128E-02    0.647E-02
RMM:  10    -0.231351932104E+04    0.19060E-03   -0.35751E-04  4159   0.114E-02    0.413E-02
RMM:  11    -0.231351923623E+04    0.84817E-04   -0.10815E-04  3715   0.852E-03    0.184E-02
RMM:  12    -0.231351919438E+04    0.41847E-04   -0.70110E-05  3650   0.642E-03    0.155E-02
RMM:  13    -0.231351918895E+04    0.54309E-05   -0.27050E-05  3025   0.586E-03
   3 F= -.23343592E+04 E0= -.23343592E+04  d E =-.104536E+01  mag=     6.0000
       N       E                     dE             d eps       ncg     rms          rms(c)
DAV:   1    -0.231335332038E+04    0.16587E+00   -0.34381E+01  4688   0.294E+00    0.194E+00
RMM:   2    -0.231387926190E+04   -0.52594E+00   -0.54200E+00  6547   0.789E-01    0.185E+00
RMM:   3    -0.231388692992E+04   -0.76680E-02   -0.52137E-01  5792   0.299E-01    0.106E+00
RMM:   4    -0.231388141862E+04    0.55113E-02   -0.56779E-02  5260   0.730E-02    0.716E-01
RMM:   5    -0.231388011365E+04    0.13050E-02   -0.13507E-02  5101   0.403E-02    0.634E-01
RMM:   6    -0.231387595824E+04    0.41554E-02   -0.81676E-03  5081   0.328E-02    0.234E-01
RMM:   7    -0.231387575222E+04    0.20602E-03   -0.17684E-03  3950   0.194E-02    0.641E-02
RMM:   8    -0.231387573262E+04    0.19603E-04   -0.33526E-04  3195   0.916E-03    0.358E-02
RMM:   9    -0.231387571603E+04    0.16591E-04   -0.95992E-05  2987   0.618E-03    0.176E-02
RMM:  10    -0.231387571897E+04   -0.29434E-05   -0.26643E-05  2922   0.369E-03
   4 F= -.23347167E+04 E0= -.23347167E+04  d E =-.357467E+00  mag=     6.0000
       N       E                     dE             d eps       ncg     rms          rms(c)
DAV:   1    -0.231387196879E+04    0.37472E-02   -0.41315E-01  5088   0.326E-01    0.200E-01
RMM:   2    -0.231387822387E+04   -0.62551E-02   -0.64489E-02  6145   0.845E-02    0.170E-01
RMM:   3    -0.231387858407E+04   -0.36020E-03   -0.67934E-03  3501   0.364E-02    0.115E-01
RMM:   4    -0.231387852356E+04    0.60514E-04   -0.66940E-04  3108   0.894E-03    0.786E-02
RMM:   5    -0.231387850158E+04    0.21973E-04   -0.16062E-04  2824   0.521E-03    0.648E-02
RMM:   6    -0.231387846172E+04    0.39861E-04   -0.10085E-04  2834   0.448E-03    0.293E-02
RMM:   7    -0.231387845817E+04    0.35485E-05   -0.22674E-05  2741   0.310E-03
   5 F= -.23347196E+04 E0= -.23347196E+04  d E =-.360331E+00  mag=     6.0000
       N       E                     dE             d eps       ncg     rms          rms(c)
DAV:   1    -0.231365786446E+04    0.22060E+00   -0.17837E+01  4520   0.238E+00    0.158E+00
RMM:   2    -0.231412919250E+04   -0.47133E+00   -0.46519E+00  6570   0.734E-01    0.196E+00
RMM:   3    -0.231412546077E+04    0.37317E-02   -0.45529E-01  5660   0.265E-01    0.785E-01
RMM:   4    -0.231412338580E+04    0.20750E-02   -0.48005E-02  5083   0.599E-02    0.495E-01
RMM:   5    -0.231412208423E+04    0.13016E-02   -0.52567E-03  4423   0.261E-02    0.391E-01
RMM:   6    -0.231412053265E+04    0.15516E-02   -0.38358E-03  4837   0.221E-02    0.220E-01
RMM:   7    -0.231412026913E+04    0.26353E-03   -0.19275E-03  3979   0.186E-02    0.727E-02
RMM:   8    -0.231412024315E+04    0.25979E-04   -0.20798E-04  3048   0.800E-03    0.342E-02
RMM:   9    -0.231412024993E+04   -0.67853E-05   -0.57290E-05  2953   0.445E-03
   6 F= -.23349614E+04 E0= -.23349614E+04  d E =-.241855E+00  mag=     6.0000
       N       E                     dE             d eps       ncg     rms          rms(c)
DAV:   1    -0.231260274706E+04    0.15175E+01   -0.63628E+01  4464   0.449E+00    0.304E+00
RMM:   2    -0.231439172286E+04   -0.17890E+01   -0.17691E+01  6549   0.147E+00    0.385E+00
RMM:   3    -0.231432158666E+04    0.70136E-01   -0.16965E+00  5389   0.587E-01    0.129E+00
RMM:   4    -0.231431594398E+04    0.56427E-02   -0.16388E-01  5246   0.113E-01    0.814E-01
RMM:   5    -0.231431321281E+04    0.27312E-02   -0.17898E-02  4876   0.498E-02    0.752E-01
RMM:   6    -0.231430875763E+04    0.44552E-02   -0.14256E-02  5481   0.426E-02    0.463E-01
RMM:   7    -0.231430745255E+04    0.13051E-02   -0.76528E-03  4782   0.347E-02    0.200E-01
RMM:   8    -0.231430707777E+04    0.37478E-03   -0.84961E-04  3490   0.140E-02    0.574E-02
RMM:   9    -0.231430713769E+04   -0.59915E-04   -0.24040E-04  3260   0.735E-03    0.272E-02
RMM:  10    -0.231430717361E+04   -0.35920E-04   -0.38136E-05  2953   0.490E-03    0.152E-02
RMM:  11    -0.231430719992E+04   -0.26317E-04   -0.17633E-05  2912   0.337E-03    0.818E-03
RMM:  12    -0.231430721353E+04   -0.13607E-04   -0.58410E-06  2797   0.277E-03    0.475E-03
RMM:  13    -0.231430722266E+04   -0.91274E-05   -0.35910E-06  2617   0.205E-03
   7 F= -.23351485E+04 E0= -.23351485E+04  d E =-.428945E+00  mag=     6.0000
       N       E                     dE             d eps       ncg     rms          rms(c)
DAV:   1    -0.231428532770E+04    0.21886E-01   -0.13601E+01  4596   0.196E+00    0.130E+00
RMM:   2    -0.231452408646E+04   -0.23876E+00   -0.25173E+00  6387   0.565E-01    0.120E+00
RMM:   3    -0.231453092337E+04   -0.68369E-02   -0.21817E-01  5869   0.194E-01    0.707E-01
RMM:   4    -0.231452742567E+04    0.34977E-02   -0.25278E-02  5140   0.471E-02    0.362E-01
RMM:   5    -0.231452607680E+04    0.13489E-02   -0.48394E-03  4835   0.301E-02    0.251E-01
RMM:   6    -0.231452589338E+04    0.18342E-03   -0.30440E-03  4742   0.218E-02    0.216E-01
RMM:   7    -0.231452541401E+04    0.47937E-03   -0.72177E-04  3441   0.123E-02    0.560E-02
RMM:   8    -0.231452536702E+04    0.46990E-04   -0.14918E-04  2988   0.579E-03    0.356E-02
RMM:   9    -0.231452535562E+04    0.11406E-04   -0.69634E-05  2903   0.512E-03    0.179E-02
RMM:  10    -0.231452535207E+04    0.35508E-05   -0.18857E-05  2921   0.354E-03
   8 F= -.23353660E+04 E0= -.23353660E+04  d E =-.217447E+00  mag=     6.0000
       N       E                     dE             d eps       ncg     rms          rms(c)
DAV:   1    -0.231441976153E+04    0.10559E+00   -0.99419E+00  4784   0.166E+00    0.109E+00
RMM:   2    -0.231459010712E+04   -0.17035E+00   -0.17970E+00  6368   0.460E-01    0.102E+00
RMM:   3    -0.231459250038E+04   -0.23933E-02   -0.15334E-01  5801   0.164E-01    0.619E-01
RMM:   4    -0.231458978586E+04    0.27145E-02   -0.18993E-02  4958   0.421E-02    0.318E-01
RMM:   5    -0.231458854990E+04    0.12360E-02   -0.38259E-03  4688   0.270E-02    0.191E-01
RMM:   6    -0.231458850497E+04    0.44927E-04   -0.21559E-03  4357   0.185E-02    0.187E-01
RMM:   7    -0.231458814993E+04    0.35504E-03   -0.57836E-04  3163   0.110E-02    0.562E-02
RMM:   8    -0.231458810494E+04    0.44997E-04   -0.11951E-04  2982   0.528E-03    0.331E-02
RMM:   9    -0.231458809417E+04    0.10766E-04   -0.52769E-05  2887   0.459E-03    0.164E-02
RMM:  10    -0.231458809080E+04    0.33671E-05   -0.15623E-05  2894   0.326E-03
   9 F= -.23354282E+04 E0= -.23354282E+04  d E =-.279681E+00  mag=     6.0000
       N       E                     dE             d eps       ncg     rms          rms(c)
DAV:   1    -0.231456886554E+04    0.19229E-01   -0.44097E+00  4560   0.119E+00    0.765E-01
RMM:   2    -0.231465627761E+04   -0.87412E-01   -0.86593E-01  6434   0.309E-01    0.889E-01
RMM:   3    -0.231465558550E+04    0.69210E-03   -0.85612E-02  5780   0.120E-01    0.438E-01
RMM:   4    -0.231465439304E+04    0.11925E-02   -0.96643E-03  4384   0.289E-02    0.175E-01
RMM:   5    -0.231465408147E+04    0.31157E-03   -0.80559E-04  4085   0.133E-02    0.123E-01
RMM:   6    -0.231465398727E+04    0.94203E-04   -0.90575E-04  4073   0.156E-02    0.667E-02
RMM:   7    -0.231465396344E+04    0.23828E-04   -0.13368E-04  2959   0.763E-03    0.403E-02
RMM:   8    -0.231465394981E+04    0.13629E-04   -0.36485E-05  2854   0.407E-03    0.149E-02
RMM:   9    -0.231465395077E+04   -0.96149E-06   -0.14568E-05  2868   0.271E-03
  10 F= -.23354941E+04 E0= -.23354941E+04  d E =-.658962E-01  mag=     6.0000
       N       E                     dE             d eps       ncg     rms          rms(c)
DAV:   1    -0.231393932501E+04    0.71462E+00   -0.39431E+01  4456   0.361E+00    0.230E+00
RMM:   2    -0.231474116137E+04   -0.80184E+00   -0.80522E+00  6475   0.946E-01    0.249E+00
RMM:   3    -0.231476288060E+04   -0.21719E-01   -0.81159E-01  6029   0.366E-01    0.163E+00
RMM:   4    -0.231474260165E+04    0.20279E-01   -0.84721E-02  5310   0.863E-02    0.568E-01
RMM:   5    -0.231474052252E+04    0.20791E-02   -0.95596E-03  5259   0.389E-02    0.468E-01
RMM:   6    -0.231473989012E+04    0.63240E-03   -0.73036E-03  5199   0.351E-02    0.416E-01
RMM:   7    -0.231473855778E+04    0.13323E-02   -0.43429E-03  5125   0.295E-02    0.122E-01
RMM:   8    -0.231473848722E+04    0.70562E-04   -0.48359E-04  3584   0.124E-02    0.532E-02
RMM:   9    -0.231473851670E+04   -0.29477E-04   -0.15231E-04  3231   0.744E-03    0.246E-02
RMM:  10    -0.231473854991E+04   -0.33217E-04   -0.43110E-05  2981   0.530E-03    0.120E-02
RMM:  11    -0.231473857398E+04   -0.24066E-04   -0.18071E-05  2914   0.428E-03    0.683E-03
RMM:  12    -0.231473858915E+04   -0.15171E-04   -0.10679E-05  2870   0.376E-03    0.487E-03
RMM:  13    -0.231473859975E+04   -0.10604E-04   -0.82035E-06  2833   0.318E-03    0.223E-03
RMM:  14    -0.231473860420E+04   -0.44463E-05   -0.39909E-06  2741   0.270E-03
  11 F= -.23355785E+04 E0= -.23355785E+04  d E =-.150321E+00  mag=     6.0000
       N       E                     dE             d eps       ncg     rms          rms(c)
DAV:   1    -0.231465971715E+04    0.78883E-01   -0.71611E+00  4496   0.180E+00    0.104E+00
RMM:   2    -0.231479891740E+04   -0.13920E+00   -0.13928E+00  6053   0.439E-01    0.120E+00
RMM:   3    -0.231479560831E+04    0.33091E-02   -0.12544E-01  5803   0.174E-01    0.611E-01
RMM:   4    -0.231479343444E+04    0.21739E-02   -0.15391E-02  4803   0.404E-02    0.230E-01
RMM:   5    -0.231479290507E+04    0.52937E-03   -0.14277E-03  4848   0.208E-02    0.179E-01
RMM:   6    -0.231479296629E+04   -0.61222E-04   -0.16326E-03  4967   0.200E-02    0.194E-01
RMM:   7    -0.231479262026E+04    0.34603E-03   -0.63115E-04  4320   0.150E-02    0.474E-02
RMM:   8    -0.231479258875E+04    0.31505E-04   -0.64198E-05  2963   0.604E-03    0.215E-02
RMM:   9    -0.231479257400E+04    0.14750E-04   -0.30942E-05  2936   0.406E-03    0.120E-02
RMM:  10    -0.231479256793E+04    0.60702E-05   -0.13003E-05  2870   0.374E-03
  12 F= -.23356325E+04 E0= -.23356325E+04  d E =-.539745E-01  mag=     6.0000
       N       E                     dE             d eps       ncg     rms          rms(c)
DAV:   1    -0.231475312867E+04    0.39445E-01   -0.26771E+00  4592   0.109E+00    0.631E-01
RMM:   2    -0.231480395600E+04   -0.50827E-01   -0.51094E-01  6098   0.263E-01    0.699E-01
RMM:   3    -0.231480337676E+04    0.57924E-03   -0.45879E-02  5700   0.101E-01    0.377E-01
RMM:   4    -0.231480245642E+04    0.92035E-03   -0.55758E-03  4554   0.246E-02    0.138E-01
RMM:   5    -0.231480225471E+04    0.20171E-03   -0.51772E-04  4248   0.129E-02    0.102E-01
RMM:   6    -0.231480227983E+04   -0.25115E-04   -0.60440E-04  4344   0.133E-02    0.112E-01
RMM:   7    -0.231480215982E+04    0.12000E-03   -0.19372E-04  3242   0.987E-03    0.249E-02
RMM:   8    -0.231480214985E+04    0.99724E-05   -0.23262E-05  2883   0.447E-03
  13 F= -.23356420E+04 E0= -.23356420E+04  d E =-.635062E-01  mag=     6.0000
       N       E                     dE             d eps       ncg     rms          rms(c)
DAV:   1    -0.231466141849E+04    0.14074E+00   -0.66545E+00  4472   0.161E+00    0.108E+00
RMM:   2    -0.231485276222E+04   -0.19134E+00   -0.19321E+00  6355   0.455E-01    0.119E+00
RMM:   3    -0.231485288447E+04   -0.12226E-03   -0.19048E-01  5921   0.190E-01    0.590E-01
RMM:   4    -0.231485114081E+04    0.17437E-02   -0.20916E-02  4796   0.401E-02    0.262E-01
RMM:   5    -0.231485026165E+04    0.87916E-03   -0.14013E-03  4450   0.164E-02    0.191E-01
RMM:   6    -0.231485021625E+04    0.45402E-04   -0.21283E-03  4816   0.201E-02    0.199E-01
RMM:   7    -0.231484986145E+04    0.35480E-03   -0.76380E-04  3871   0.130E-02    0.549E-02
RMM:   8    -0.231484984129E+04    0.20158E-04   -0.76930E-05  2902   0.585E-03    0.244E-02
RMM:   9    -0.231484983473E+04    0.65666E-05   -0.27608E-05  2920   0.342E-03
  14 F= -.23356901E+04 E0= -.23356901E+04  d E =-.480517E-01  mag=     6.0000
       N       E                     dE             d eps       ncg     rms          rms(c)
DAV:   1    -0.231478525561E+04    0.64586E-01   -0.26449E+00  4508   0.102E+00    0.668E-01
RMM:   2    -0.231485842173E+04   -0.73166E-01   -0.74372E-01  6314   0.281E-01    0.672E-01
RMM:   3    -0.231485989519E+04   -0.14735E-02   -0.73249E-02  5753   0.119E-01    0.364E-01
RMM:   4    -0.231485917675E+04    0.71845E-03   -0.80663E-03  4283   0.252E-02    0.161E-01
RMM:   5    -0.231485883536E+04    0.34138E-03   -0.53679E-04  3659   0.106E-02    0.111E-01
RMM:   6    -0.231485878467E+04    0.50694E-04   -0.81385E-04  4288   0.137E-02    0.950E-02
RMM:   7    -0.231485870618E+04    0.78493E-04   -0.19134E-04  2995   0.816E-03    0.277E-02
RMM:   8    -0.231485870220E+04    0.39731E-05   -0.20602E-05  2875   0.389E-03
  15 F= -.23356991E+04 E0= -.23356991E+04  d E =-.570625E-01  mag=     6.0000
       N       E                     dE             d eps       ncg     rms          rms(c)
DAV:   1    -0.231485326927E+04    0.54369E-02   -0.89993E-01  4632   0.685E-01    0.349E-01
RMM:   2    -0.231486955945E+04   -0.16290E-01   -0.16703E-01  5887   0.155E-01    0.271E-01
RMM:   3    -0.231487050889E+04   -0.94944E-03   -0.15135E-02  5299   0.670E-02    0.229E-01
RMM:   4    -0.231487008740E+04    0.42149E-03   -0.17828E-03  4111   0.168E-02    0.902E-02
RMM:   5    -0.231487001464E+04    0.72762E-04   -0.26347E-04  3530   0.997E-03    0.653E-02
RMM:   6    -0.231487000688E+04    0.77609E-05   -0.22567E-04  3563   0.945E-03    0.609E-02
RMM:   7    -0.231486996773E+04    0.39150E-04   -0.58137E-05  2899   0.697E-03    0.116E-02
RMM:   8    -0.231486996651E+04    0.12211E-05   -0.10405E-05  2895   0.356E-03
  16 F= -.23357104E+04 E0= -.23357104E+04  d E =-.112764E-01  mag=     6.0000
       N       E                     dE             d eps       ncg     rms          rms(c)
DAV:   1    -0.231485424021E+04    0.15728E-01   -0.10620E+00  4512   0.742E-01    0.379E-01
RMM:   2    -0.231487337895E+04   -0.19139E-01   -0.19696E-01  5876   0.169E-01    0.286E-01
RMM:   3    -0.231487464837E+04   -0.12694E-02   -0.18813E-02  5313   0.737E-02    0.248E-01
RMM:   4    -0.231487415974E+04    0.48863E-03   -0.21171E-03  4278   0.181E-02    0.993E-02
RMM:   5    -0.231487406724E+04    0.92503E-04   -0.32502E-04  3695   0.107E-02    0.685E-02
RMM:   6    -0.231487406359E+04    0.36495E-05   -0.26401E-04  3760   0.101E-02    0.685E-02
RMM:   7    -0.231487401420E+04    0.49386E-04   -0.72796E-05  2913   0.738E-03    0.136E-02
RMM:   8    -0.231487401265E+04    0.15504E-05   -0.12753E-05  2907   0.369E-03
  17 F= -.23357144E+04 E0= -.23357144E+04  d E =-.153257E-01  mag=     6.0000
       N       E                     dE             d eps       ncg     rms          rms(c)
DAV:   1    -0.231486522809E+04    0.87861E-02   -0.92352E-01  4496   0.697E-01    0.328E-01
RMM:   2    -0.231488072210E+04   -0.15494E-01   -0.15822E-01  5959   0.151E-01    0.251E-01
RMM:   3    -0.231488167182E+04   -0.94972E-03   -0.14675E-02  5253   0.671E-02    0.211E-01
RMM:   4    -0.231488133571E+04    0.33611E-03   -0.16525E-03  3630   0.155E-02    0.904E-02
RMM:   5    -0.231488125384E+04    0.81869E-04   -0.26169E-04  3341   0.926E-03    0.646E-02
RMM:   6    -0.231488124455E+04    0.92951E-05   -0.22135E-04  3522   0.885E-03    0.626E-02
RMM:   7    -0.231488120554E+04    0.39004E-04   -0.70606E-05  2905   0.685E-03    0.133E-02
RMM:   8    -0.231488120384E+04    0.16985E-05   -0.12637E-05  2898   0.367E-03
  18 F= -.23357216E+04 E0= -.23357216E+04  d E =-.721199E-02  mag=     6.0000
       N       E                     dE             d eps       ncg     rms          rms(c)
DAV:   1    -0.231487615813E+04    0.50474E-02   -0.37137E-01  4576   0.439E-01    0.207E-01
RMM:   2    -0.231488225236E+04   -0.60942E-02   -0.62028E-02  5934   0.956E-02    0.158E-01
RMM:   3    -0.231488262119E+04   -0.36883E-03   -0.57789E-03  4349   0.416E-02    0.132E-01
RMM:   4    -0.231488249130E+04    0.12989E-03   -0.65913E-04  3031   0.102E-02    0.565E-02
RMM:   5    -0.231488245694E+04    0.34365E-04   -0.10098E-04  2967   0.618E-03    0.398E-02
RMM:   6    -0.231488245355E+04    0.33828E-05   -0.83892E-05  2961   0.615E-03
  19 F= -.23357229E+04 E0= -.23357229E+04  d E =-.847494E-02  mag=     6.0000
       N       E                     dE             d eps       ncg     rms          rms(c)
DAV:   1    -0.231487932675E+04    0.31302E-02   -0.49002E-01  4496   0.537E-01    0.243E-01
RMM:   2    -0.231488586312E+04   -0.65364E-02   -0.69944E-02  6006   0.115E-01    0.151E-01
RMM:   3    -0.231488637172E+04   -0.50861E-03   -0.73849E-03  5066   0.497E-02    0.134E-01
RMM:   4    -0.231488628051E+04    0.91215E-04   -0.80855E-04  3199   0.119E-02    0.725E-02
RMM:   5    -0.231488623386E+04    0.46644E-04   -0.15385E-04  3127   0.790E-03    0.497E-02
RMM:   6    -0.231488622703E+04    0.68361E-05   -0.11751E-04  3118   0.774E-03    0.413E-02
RMM:   7    -0.231488621202E+04    0.15010E-04   -0.37640E-05  2899   0.573E-03    0.177E-02
RMM:   8    -0.231488620867E+04    0.33445E-05   -0.78952E-06  2836   0.289E-03
  20 F= -.23357270E+04 E0= -.23357270E+04  d E =-.413024E-02  mag=     6.0000
       N       E                     dE             d eps       ncg     rms          rms(c)
DAV:   1    -0.231488414975E+04    0.20623E-02   -0.16793E-01  4600   0.314E-01    0.142E-01
RMM:   2    -0.231488641132E+04   -0.22616E-02   -0.24119E-02  5944   0.675E-02    0.939E-02
RMM:   3    -0.231488657377E+04   -0.16245E-03   -0.24692E-03  3696   0.288E-02    0.835E-02
RMM:   4    -0.231488653218E+04    0.41592E-04   -0.27152E-04  2944   0.764E-03    0.403E-02
RMM:   5    -0.231488651559E+04    0.16593E-04   -0.58978E-05  2923   0.514E-03    0.262E-02
RMM:   6    -0.231488651484E+04    0.75117E-06   -0.37238E-05  2912   0.495E-03
  21 F= -.23357275E+04 E0= -.23357275E+04  d E =-.465769E-02  mag=     6.0000
       N       E                     dE             d eps       ncg     rms          rms(c)
DAV:   1    -0.231488274352E+04    0.37721E-02   -0.36024E-01  4496   0.475E-01    0.210E-01
RMM:   2    -0.231488803072E+04   -0.52872E-02   -0.55051E-02  5980   0.997E-02    0.126E-01
RMM:   3    -0.231488856629E+04   -0.53556E-03   -0.67826E-03  4357   0.484E-02    0.115E-01
RMM:   4    -0.231488851705E+04    0.49236E-04   -0.60915E-04  3036   0.103E-02    0.671E-02
RMM:   5    -0.231488847392E+04    0.43133E-04   -0.16004E-04  3075   0.760E-03    0.335E-02
RMM:   6    -0.231488846913E+04    0.47947E-05   -0.56167E-05  2935   0.611E-03
  22 F= -.23357300E+04 E0= -.23357300E+04  d E =-.249361E-02  mag=     6.0000
       N       E                     dE             d eps       ncg     rms          rms(c)
DAV:   1    -0.231488487294E+04    0.36010E-02   -0.21632E-01  4552   0.367E-01    0.164E-01
RMM:   2    -0.231488804440E+04   -0.31715E-02   -0.33178E-02  6072   0.777E-02    0.946E-02
RMM:   3    -0.231488837795E+04   -0.33355E-03   -0.41538E-03  3897   0.370E-02    0.850E-02
RMM:   4    -0.231488835694E+04    0.21010E-04   -0.36690E-04  2971   0.808E-03    0.550E-02
RMM:   5    -0.231488832804E+04    0.28896E-04   -0.90255E-05  2936   0.584E-03    0.251E-02
RMM:   6    -0.231488832488E+04    0.31641E-05   -0.33747E-05  2925   0.488E-03
  23 F= -.23357303E+04 E0= -.23357303E+04  d E =-.277049E-02  mag=     6.0000
       N       E                     dE             d eps       ncg     rms          rms(c)
DAV:   1    -0.231488775124E+04    0.57680E-03   -0.25009E-01  4480   0.417E-01    0.177E-01
RMM:   2    -0.231489009768E+04   -0.23464E-02   -0.25061E-02  5900   0.832E-02    0.124E-01
RMM:   3    -0.231489024246E+04   -0.14478E-03   -0.25120E-03  4460   0.351E-02    0.112E-01
RMM:   4    -0.231489013600E+04    0.10646E-03   -0.30378E-04  3233   0.977E-03    0.469E-02
RMM:   5    -0.231489011801E+04    0.17993E-04   -0.10787E-04  3367   0.817E-03    0.244E-02
RMM:   6    -0.231489012133E+04   -0.33191E-05   -0.37929E-05  2919   0.589E-03
  24 F= -.23357324E+04 E0= -.23357324E+04  d E =-.213373E-02  mag=     6.0000
       N       E                     dE             d eps       ncg     rms          rms(c)
DAV:   1    -0.231488883214E+04    0.12859E-02   -0.15552E-01  4480   0.330E-01    0.138E-01
RMM:   2    -0.231489026889E+04   -0.14367E-02   -0.15540E-02  5924   0.654E-02    0.889E-02
RMM:   3    -0.231489037934E+04   -0.11045E-03   -0.16136E-03  3817   0.271E-02    0.877E-02
RMM:   4    -0.231489032077E+04    0.58572E-04   -0.18892E-04  2983   0.779E-03    0.417E-02
RMM:   5    -0.231489030883E+04    0.11937E-04   -0.72472E-05  3036   0.629E-03    0.304E-02
RMM:   6    -0.231489030448E+04    0.43487E-05   -0.35355E-05  2884   0.550E-03
  25 F= -.23357329E+04 E0= -.23357329E+04  d E =-.258436E-02  mag=     6.0000
       N       E                     dE             d eps       ncg     rms          rms(c)
DAV:   1    -0.231488800261E+04    0.23062E-02   -0.45044E-01  4496   0.526E-01    0.220E-01
RMM:   2    -0.231489310454E+04   -0.51019E-02   -0.52635E-02  5816   0.103E-01    0.168E-01
RMM:   3    -0.231489336223E+04   -0.25769E-03   -0.54098E-03  4530   0.486E-02    0.130E-01
RMM:   4    -0.231489323951E+04    0.12273E-03   -0.61662E-04  3300   0.110E-02    0.613E-02
RMM:   5    -0.231489319947E+04    0.40033E-04   -0.16442E-04  3336   0.840E-03    0.350E-02
RMM:   6    -0.231489320841E+04   -0.89369E-05   -0.75598E-05  2955   0.674E-03
  26 F= -.23357357E+04 E0= -.23357357E+04  d E =-.285257E-02  mag=     6.0000
       N       E                     dE             d eps       ncg     rms          rms(c)
DAV:   1    -0.231488911458E+04    0.40849E-02   -0.42269E-01  4484   0.509E-01    0.215E-01
RMM:   2    -0.231489386533E+04   -0.47507E-02   -0.49360E-02  5919   0.101E-01    0.157E-01
RMM:   3    -0.231489415726E+04   -0.29194E-03   -0.52518E-03  4633   0.457E-02    0.126E-01
RMM:   4    -0.231489404722E+04    0.11005E-03   -0.58868E-04  3206   0.107E-02    0.623E-02
RMM:   5    -0.231489401801E+04    0.29202E-04   -0.16529E-04  3176   0.792E-03    0.467E-02
RMM:   6    -0.231489401280E+04    0.52135E-05   -0.88311E-05  2952   0.686E-03
  27 F= -.23357365E+04 E0= -.23357365E+04  d E =-.360695E-02  mag=     6.0000
       N       E                     dE             d eps       ncg     rms          rms(c)
DAV:   1    -0.231489242512E+04    0.15929E-02   -0.28326E-01  4496   0.394E-01    0.172E-01
RMM:   2    -0.231489608133E+04   -0.36562E-02   -0.36882E-02  6234   0.816E-02    0.144E-01
RMM:   3    -0.231489626444E+04   -0.18311E-03   -0.37288E-03  3952   0.333E-02    0.107E-01
RMM:   4    -0.231489618701E+04    0.77426E-04   -0.41797E-04  2992   0.893E-03    0.512E-02
RMM:   5    -0.231489617620E+04    0.10808E-04   -0.80942E-05  2935   0.525E-03    0.462E-02
RMM:   6    -0.231489616143E+04    0.14771E-04   -0.70626E-05  2904   0.543E-03    0.245E-02
RMM:   7    -0.231489615733E+04    0.41072E-05   -0.16347E-05  2903   0.411E-03
  28 F= -.23357386E+04 E0= -.23357386E+04  d E =-.208853E-02  mag=     6.0000
       N       E                     dE             d eps       ncg     rms          rms(c)
DAV:   1    -0.231488577244E+04    0.10389E-01   -0.90747E-01  4484   0.704E-01    0.306E-01
RMM:   2    -0.231489767022E+04   -0.11898E-01   -0.11846E-01  5974   0.143E-01    0.289E-01
RMM:   3    -0.231489800921E+04   -0.33899E-03   -0.11586E-02  5214   0.607E-02    0.188E-01
RMM:   4    -0.231489775068E+04    0.25853E-03   -0.12928E-03  3627   0.143E-02    0.817E-02
RMM:   5    -0.231489769789E+04    0.52781E-04   -0.25590E-04  3414   0.909E-03    0.667E-02
RMM:   6    -0.231489768704E+04    0.10856E-04   -0.18003E-04  3043   0.822E-03    0.554E-02
RMM:   7    -0.231489766102E+04    0.26020E-04   -0.44529E-05  2903   0.609E-03    0.104E-02
RMM:   8    -0.231489766025E+04    0.76948E-06   -0.88324E-06  2880   0.349E-03
  29 F= -.23357400E+04 E0= -.23357400E+04  d E =-.348910E-02  mag=     6.0000
       N       E                     dE             d eps       ncg     rms          rms(c)
DAV:   1    -0.231489518877E+04    0.24722E-02   -0.31653E-01  4496   0.429E-01    0.199E-01
RMM:   2    -0.231489966757E+04   -0.44788E-02   -0.44936E-02  5862   0.903E-02    0.181E-01
RMM:   3    -0.231489985088E+04   -0.18330E-03   -0.49934E-03  4209   0.420E-02    0.118E-01
RMM:   4    -0.231489976525E+04    0.85625E-04   -0.50770E-04  3151   0.101E-02    0.498E-02
RMM:   5    -0.231489974310E+04    0.22157E-04   -0.79216E-05  3037   0.669E-03    0.271E-02
RMM:   6    -0.231489975148E+04   -0.83832E-05   -0.55302E-05  2924   0.610E-03
  30 F= -.23357422E+04 E0= -.23357422E+04  d E =-.222872E-02  mag=     6.0000
       N       E                     dE             d eps       ncg     rms          rms(c)
DAV:   1    -0.231488934519E+04    0.10398E-01   -0.79321E-01  4484   0.681E-01    0.317E-01
RMM:   2    -0.231490054537E+04   -0.11200E-01   -0.11277E-01  5848   0.143E-01    0.281E-01
RMM:   3    -0.231490105553E+04   -0.51016E-03   -0.12576E-02  5153   0.674E-02    0.188E-01
RMM:   4    -0.231490083266E+04    0.22287E-03   -0.12987E-03  4066   0.154E-02    0.807E-02
RMM:   5    -0.231490079107E+04    0.41592E-04   -0.20462E-04  3495   0.976E-03    0.599E-02
RMM:   6    -0.231490079410E+04   -0.30382E-05   -0.16697E-04  3142   0.842E-03    0.565E-02
RMM:   7    -0.231490076657E+04    0.27531E-04   -0.43387E-05  2900   0.637E-03    0.129E-02
RMM:   8    -0.231490076481E+04    0.17637E-05   -0.94622E-06  2881   0.350E-03
  31 F= -.23357434E+04 E0= -.23357434E+04  d E =-.344949E-02  mag=     6.0000
       N       E                     dE             d eps       ncg     rms          rms(c)
DAV:   1    -0.231489843233E+04    0.23342E-02   -0.24284E-01  4512   0.380E-01    0.179E-01
RMM:   2    -0.231490254527E+04   -0.41129E-02   -0.40907E-02  6072   0.832E-02    0.177E-01
RMM:   3    -0.231490266140E+04   -0.11613E-03   -0.44190E-03  4010   0.353E-02    0.999E-02
RMM:   4    -0.231490261041E+04    0.50987E-04   -0.45944E-04  2992   0.886E-03    0.437E-02
RMM:   5    -0.231490259275E+04    0.17662E-04   -0.58627E-05  2952   0.561E-03    0.262E-02
RMM:   6    -0.231490260081E+04   -0.80630E-05   -0.49978E-05  2908   0.546E-03
  32 F= -.23357455E+04 E0= -.23357455E+04  d E =-.201960E-02  mag=     6.0000
       N       E                     dE             d eps       ncg     rms          rms(c)
DAV:   1    -0.231487805463E+04    0.24538E-01   -0.15027E+00  4456   0.944E-01    0.450E-01
RMM:   2    -0.231490372743E+04   -0.25673E-01   -0.25443E-01  5921   0.205E-01    0.456E-01
RMM:   3    -0.231490421795E+04   -0.49052E-03   -0.27339E-02  5460   0.879E-02    0.242E-01
RMM:   4    -0.231490394347E+04    0.27448E-03   -0.28563E-03  4431   0.198E-02    0.108E-01
RMM:   5    -0.231490385634E+04    0.87131E-04   -0.35912E-04  4064   0.121E-02    0.849E-02
RMM:   6    -0.231490386681E+04   -0.10475E-04   -0.33437E-04  3620   0.100E-02    0.828E-02
RMM:   7    -0.231490380798E+04    0.58833E-04   -0.87287E-05  2930   0.744E-03    0.132E-02
RMM:   8    -0.231490380771E+04    0.27234E-06   -0.13120E-05  2911   0.389E-03
  33 F= -.23357471E+04 E0= -.23357471E+04  d E =-.365344E-02  mag=     6.0000
       N       E                     dE             d eps       ncg     rms          rms(c)
DAV:   1    -0.231489943276E+04    0.43752E-02   -0.42376E-01  4480   0.462E-01    0.223E-01
RMM:   2    -0.231490588269E+04   -0.64499E-02   -0.63772E-02  6099   0.100E-01    0.234E-01
RMM:   3    -0.231490594566E+04   -0.62964E-04   -0.60178E-03  4338   0.415E-02    0.122E-01
RMM:   4    -0.231490586517E+04    0.80490E-04   -0.68028E-04  3097   0.103E-02    0.555E-02
RMM:   5    -0.231490584200E+04    0.23164E-04   -0.92746E-05  3092   0.674E-03    0.296E-02
RMM:   6    -0.231490584457E+04   -0.25687E-05   -0.48254E-05  2898   0.600E-03
  34 F= -.23357492E+04 E0= -.23357492E+04  d E =-.211316E-02  mag=     6.0000
       N       E                     dE             d eps       ncg     rms          rms(c)
DAV:   1    -0.231485578009E+04    0.50062E-01   -0.34136E+00  4456   0.131E+00    0.636E-01
RMM:   2    -0.231490783886E+04   -0.52059E-01   -0.51394E-01  5932   0.283E-01    0.675E-01
RMM:   3    -0.231490844499E+04   -0.60613E-03   -0.50898E-02  5537   0.122E-01    0.348E-01
RMM:   4    -0.231490777453E+04    0.67046E-03   -0.55686E-03  4770   0.275E-02    0.157E-01
RMM:   5    -0.231490757094E+04    0.20359E-03   -0.72401E-04  4603   0.169E-02    0.883E-02
RMM:   6    -0.231490763429E+04   -0.63353E-04   -0.47611E-04  4269   0.128E-02    0.914E-02
RMM:   7    -0.231490755720E+04    0.77095E-04   -0.11561E-04  2934   0.768E-03    0.218E-02
RMM:   8    -0.231490755207E+04    0.51237E-05   -0.15713E-05  2901   0.330E-03
  35 F= -.23357511E+04 E0= -.23357511E+04  d E =-.395956E-02  mag=     6.0000
       N       E                     dE             d eps       ncg     rms          rms(c)
DAV:   1    -0.231490429031E+04    0.32669E-02   -0.45079E-01  4560   0.425E-01    0.217E-01
RMM:   2    -0.231490983256E+04   -0.55423E-02   -0.55921E-02  6143   0.901E-02    0.215E-01
RMM:   3    -0.231490991597E+04   -0.83406E-04   -0.51819E-03  4026   0.383E-02    0.124E-01
RMM:   4    -0.231490981085E+04    0.10512E-03   -0.57608E-04  3035   0.947E-03    0.554E-02
RMM:   5    -0.231490978973E+04    0.21124E-04   -0.10486E-04  2980   0.617E-03    0.268E-02
RMM:   6    -0.231490979641E+04   -0.66863E-05   -0.47265E-05  2908   0.531E-03
  36 F= -.23357533E+04 E0= -.23357533E+04  d E =-.221426E-02  mag=     6.0000
       N       E                     dE             d eps       ncg     rms          rms(c)
DAV:   1    -0.231486484407E+04    0.44946E-01   -0.40425E+00  4472   0.128E+00    0.644E-01
RMM:   2    -0.231491400121E+04   -0.49157E-01   -0.49663E-01  5961   0.266E-01    0.629E-01
RMM:   3    -0.231491530135E+04   -0.13001E-02   -0.48684E-02  5454   0.119E-01    0.379E-01
RMM:   4    -0.231491427248E+04    0.10289E-02   -0.52207E-03  4780   0.259E-02    0.166E-01
RMM:   5    -0.231491404310E+04    0.22938E-03   -0.95620E-04  4365   0.162E-02    0.768E-02
RMM:   6    -0.231491407575E+04   -0.32643E-04   -0.36419E-04  3857   0.117E-02    0.470E-02
RMM:   7    -0.231491406492E+04    0.10825E-04   -0.78842E-05  2919   0.671E-03    0.341E-02
RMM:   8    -0.231491405167E+04    0.13249E-04   -0.18907E-05  2903   0.318E-03    0.112E-02
RMM:   9    -0.231491404963E+04    0.20444E-05   -0.13337E-05  2872   0.249E-03
  37 F= -.23357574E+04 E0= -.23357574E+04  d E =-.630931E-02  mag=     6.0000
       N       E                     dE             d eps       ncg     rms          rms(c)
DAV:   1    -0.231471380584E+04    0.20025E+00   -0.16125E+01  4472   0.257E+00    0.126E+00
RMM:   2    -0.231490969476E+04   -0.19589E+00   -0.19733E+00  6098   0.534E-01    0.126E+00
RMM:   3    -0.231491670426E+04   -0.70095E-02   -0.20954E-01  5692   0.240E-01    0.775E-01
RMM:   4    -0.231491246292E+04    0.42413E-02   -0.21019E-02  5273   0.514E-02    0.347E-01
RMM:   5    -0.231491215119E+04    0.31174E-03   -0.42484E-03  5191   0.303E-02    0.323E-01
RMM:   6    -0.231491172379E+04    0.42739E-03   -0.31307E-03  5184   0.245E-02    0.200E-01
RMM:   7    -0.231491143188E+04    0.29191E-03   -0.58991E-04  4095   0.139E-02    0.455E-02
RMM:   8    -0.231491140237E+04    0.29515E-04   -0.87305E-05  2960   0.610E-03    0.240E-02
RMM:   9    -0.231491139172E+04    0.10643E-04   -0.51989E-05  2892   0.473E-03    0.103E-02
RMM:  10    -0.231491139157E+04    0.15661E-06   -0.12626E-05  2909   0.352E-03
  38 F= -.23357541E+04 E0= -.23357541E+04  d E =-.304630E-02  mag=     6.0000
       N       E                     dE             d eps       ncg     rms          rms(c)
DAV:   1    -0.231481179328E+04    0.99598E-01   -0.81820E+00  4472   0.182E+00    0.950E-01
RMM:   2    -0.231491726456E+04   -0.10547E+00   -0.10609E+00  6047   0.391E-01    0.988E-01
RMM:   3    -0.231491734999E+04   -0.85428E-04   -0.97131E-02  5577   0.166E-01    0.555E-01
RMM:   4    -0.231491529656E+04    0.20534E-02   -0.10998E-02  5022   0.369E-02    0.248E-01
RMM:   5    -0.231491503373E+04    0.26283E-03   -0.22170E-03  4931   0.232E-02    0.202E-01
RMM:   6    -0.231491501902E+04    0.14708E-04   -0.14133E-03  4874   0.175E-02    0.166E-01
RMM:   7    -0.231491479873E+04    0.22029E-03   -0.35509E-04  3226   0.103E-02    0.325E-02
RMM:   8    -0.231491478832E+04    0.10411E-04   -0.58604E-05  2918   0.563E-03    0.171E-02
RMM:   9    -0.231491478480E+04    0.35188E-05   -0.23261E-05  2921   0.332E-03
  39 F= -.23357580E+04 E0= -.23357580E+04  d E =-.690984E-02  mag=     6.0000
       N       E                     dE             d eps       ncg     rms          rms(c)
DAV:   1    -0.231490369324E+04    0.11095E-01   -0.14093E+00  4472   0.745E-01    0.383E-01
RMM:   2    -0.231491986336E+04   -0.16170E-01   -0.16211E-01  6111   0.157E-01    0.388E-01
RMM:   3    -0.231492001667E+04   -0.15332E-03   -0.15067E-02  5289   0.664E-02    0.225E-01
RMM:   4    -0.231491962874E+04    0.38793E-03   -0.16935E-03  3918   0.157E-02    0.980E-02
RMM:   5    -0.231491955993E+04    0.68813E-04   -0.35763E-04  3823   0.109E-02    0.445E-02
RMM:   6    -0.231491956712E+04   -0.71899E-05   -0.10720E-04  2984   0.790E-03    0.252E-02
RMM:   7    -0.231491956586E+04    0.12523E-05   -0.29888E-05  2902   0.490E-03
  40 F= -.23357626E+04 E0= -.23357626E+04  d E =-.466870E-02  mag=     6.0000
       N       E                     dE             d eps       ncg     rms          rms(c)
DAV:   1    -0.231479157032E+04    0.12800E+00   -0.11847E+01  4472   0.215E+00    0.110E+00
RMM:   2    -0.231492722374E+04   -0.13565E+00   -0.13543E+00  6061   0.453E-01    0.113E+00
RMM:   3    -0.231492928461E+04   -0.20609E-02   -0.13997E-01  5750   0.199E-01    0.633E-01
RMM:   4    -0.231492649260E+04    0.27920E-02   -0.14457E-02  5054   0.443E-02    0.284E-01
RMM:   5    -0.231492593293E+04    0.55967E-03   -0.30014E-03  5209   0.293E-02    0.156E-01
RMM:   6    -0.231492619709E+04   -0.26416E-03   -0.14913E-03  4876   0.195E-02    0.184E-01
RMM:   7    -0.231492588816E+04    0.30893E-03   -0.41149E-04  3310   0.106E-02    0.425E-02
RMM:   8    -0.231492586990E+04    0.18255E-04   -0.73680E-05  2944   0.539E-03    0.173E-02
RMM:   9    -0.231492587383E+04   -0.39323E-05   -0.27904E-05  2896   0.400E-03
  41 F= -.23357685E+04 E0= -.23357685E+04  d E =-.105026E-01  mag=     6.0000
       N       E                     dE             d eps       ncg     rms          rms(c)
DAV:   1    -0.231490787761E+04    0.17992E-01   -0.21049E+00  4472   0.856E-01    0.460E-01
RMM:   2    -0.231493157805E+04   -0.23700E-01   -0.23630E-01  6135   0.182E-01    0.483E-01
RMM:   3    -0.231493159571E+04   -0.17656E-04   -0.23066E-02  5496   0.767E-02    0.262E-01
RMM:   4    -0.231493112023E+04    0.47548E-03   -0.25890E-03  3921   0.177E-02    0.120E-01
RMM:   5    -0.231493101903E+04    0.10120E-03   -0.54296E-04  3885   0.119E-02    0.545E-02
RMM:   6    -0.231493104316E+04   -0.24131E-04   -0.16204E-04  3051   0.866E-03    0.447E-02
RMM:   7    -0.231493103121E+04    0.11960E-04   -0.49245E-05  2905   0.531E-03    0.243E-02
RMM:   8    -0.231493102703E+04    0.41798E-05   -0.13840E-05  2862   0.292E-03
  42 F= -.23357734E+04 E0= -.23357734E+04  d E =-.490673E-02  mag=     6.0000
       N       E                     dE             d eps       ncg     rms          rms(c)
DAV:   1    -0.231487570096E+04    0.55330E-01   -0.54933E+00  4472   0.140E+00    0.736E-01
RMM:   2    -0.231493744381E+04   -0.61743E-01   -0.61502E-01  6138   0.293E-01    0.778E-01
RMM:   3    -0.231493748680E+04   -0.42987E-04   -0.61385E-02  5682   0.124E-01    0.410E-01
RMM:   4    -0.231493638037E+04    0.11064E-02   -0.67600E-03  4779   0.279E-02    0.193E-01
RMM:   5    -0.231493608982E+04    0.29054E-03   -0.13443E-03  4494   0.183E-02    0.865E-02
RMM:   6    -0.231493612893E+04   -0.39101E-04   -0.39642E-04  3918   0.124E-02    0.568E-02
RMM:   7    -0.231493611541E+04    0.13515E-04   -0.10556E-04  2931   0.660E-03    0.429E-02
RMM:   8    -0.231493609648E+04    0.18930E-04   -0.33801E-05  2909   0.387E-03    0.114E-02
RMM:   9    -0.231493609662E+04   -0.13559E-06   -0.12784E-05  2883   0.274E-03
  43 F= -.23357780E+04 E0= -.23357780E+04  d E =-.952169E-02  mag=     6.0000
       N       E                     dE             d eps       ncg     rms          rms(c)
DAV:   1    -0.231468664676E+04    0.24945E+00   -0.21868E+01  4472   0.280E+00    0.149E+00
RMM:   2    -0.231493799868E+04   -0.25135E+00   -0.25039E+00  6216   0.597E-01    0.158E+00
RMM:   3    -0.231493907397E+04   -0.10753E-02   -0.26542E-01  5844   0.259E-01    0.788E-01
RMM:   4    -0.231493518388E+04    0.38901E-02   -0.27387E-02  5171   0.563E-02    0.382E-01
RMM:   5    -0.231493400823E+04    0.11756E-02   -0.51895E-03  5205   0.357E-02    0.181E-01
RMM:   6    -0.231493423189E+04   -0.22366E-03   -0.20018E-03  4902   0.232E-02    0.155E-01
RMM:   7    -0.231493404416E+04    0.18773E-03   -0.52825E-04  3412   0.117E-02    0.741E-02
RMM:   8    -0.231493397927E+04    0.64894E-04   -0.12221E-04  2950   0.639E-03    0.246E-02
RMM:   9    -0.231493397540E+04    0.38635E-05   -0.68279E-05  2931   0.509E-03
  44 F= -.23357748E+04 E0= -.23357748E+04  d E =-.631181E-02  mag=     6.0000
       N       E                     dE             d eps       ncg     rms          rms(c)
DAV:   1    -0.231480899076E+04    0.12499E+00   -0.11083E+01  4472   0.199E+00    0.109E+00
RMM:   2    -0.231493807907E+04   -0.12909E+00   -0.13178E+00  6218   0.432E-01    0.102E+00
RMM:   3    -0.231494158197E+04   -0.35029E-02   -0.13135E-01  5795   0.184E-01    0.692E-01
RMM:   4    -0.231493791392E+04    0.36681E-02   -0.14547E-02  5134   0.425E-02    0.300E-01
RMM:   5    -0.231493749657E+04    0.41735E-03   -0.38307E-03  4980   0.277E-02    0.226E-01
RMM:   6    -0.231493756898E+04   -0.72412E-04   -0.21237E-03  5045   0.206E-02    0.198E-01
RMM:   7    -0.231493722318E+04    0.34581E-03   -0.45656E-04  3405   0.110E-02    0.466E-02
RMM:   8    -0.231493720219E+04    0.20988E-04   -0.13669E-04  3005   0.617E-03    0.201E-02
RMM:   9    -0.231493719851E+04    0.36792E-05   -0.21858E-05  2928   0.392E-03
  45 F= -.23357788E+04 E0= -.23357788E+04  d E =-.103362E-01  mag=     6.0000
       N       E                     dE             d eps       ncg     rms          rms(c)
DAV:   1    -0.231489262038E+04    0.44582E-01   -0.44033E+00  4472   0.123E+00    0.662E-01
RMM:   2    -0.231494444560E+04   -0.51825E-01   -0.52037E-01  6176   0.270E-01    0.682E-01
RMM:   3    -0.231494507877E+04   -0.63317E-03   -0.52636E-02  5645   0.119E-01    0.355E-01
RMM:   4    -0.231494428432E+04    0.79445E-03   -0.56203E-03  4750   0.264E-02    0.177E-01
RMM:   5    -0.231494405986E+04    0.22446E-03   -0.11793E-03  4398   0.174E-02    0.101E-01
RMM:   6    -0.231494417158E+04   -0.11172E-03   -0.62056E-04  3786   0.126E-02    0.125E-01
RMM:   7    -0.231494403444E+04    0.13713E-03   -0.16710E-04  2941   0.762E-03    0.236E-02
RMM:   8    -0.231494402780E+04    0.66482E-05   -0.32174E-05  2930   0.391E-03
  46 F= -.23357853E+04 E0= -.23357853E+04  d E =-.646709E-02  mag=     6.0000
       N       E                     dE             d eps       ncg     rms          rms(c)
DAV:   1    -0.231482650204E+04    0.11753E+00   -0.10195E+01  4472   0.187E+00    0.100E+00
RMM:   2    -0.231494682190E+04   -0.12032E+00   -0.12055E+00  6173   0.413E-01    0.105E+00
RMM:   3    -0.231494813869E+04   -0.13168E-02   -0.12567E-01  5771   0.181E-01    0.523E-01
RMM:   4    -0.231494653294E+04    0.16058E-02   -0.13228E-02  5033   0.400E-02    0.267E-01
RMM:   5    -0.231494598191E+04    0.55103E-03   -0.25770E-03  4988   0.255E-02    0.140E-01
RMM:   6    -0.231494625369E+04   -0.27178E-03   -0.13061E-03  4708   0.175E-02    0.183E-01
RMM:   7    -0.231494595661E+04    0.29708E-03   -0.36977E-04  3131   0.958E-03    0.361E-02
RMM:   8    -0.231494594130E+04    0.15308E-04   -0.67948E-05  2943   0.500E-03    0.204E-02
RMM:   9    -0.231494594203E+04   -0.72256E-06   -0.34195E-05  2888   0.397E-03
  47 F= -.23357866E+04 E0= -.23357866E+04  d E =-.775723E-02  mag=     6.0000
       N       E                     dE             d eps       ncg     rms          rms(c)
DAV:   1    -0.231492826790E+04    0.17673E-01   -0.15290E+00  4528   0.728E-01    0.396E-01
RMM:   2    -0.231494645400E+04   -0.18186E-01   -0.18516E-01  6226   0.160E-01    0.383E-01
RMM:   3    -0.231494686862E+04   -0.41462E-03   -0.17290E-02  5233   0.665E-02    0.233E-01
RMM:   4    -0.231494646437E+04    0.40425E-03   -0.19714E-03  3691   0.162E-02    0.108E-01
RMM:   5    -0.231494640203E+04    0.62343E-04   -0.48101E-04  3610   0.112E-02    0.678E-02
RMM:   6    -0.231494643264E+04   -0.30612E-04   -0.23787E-04  3008   0.869E-03    0.714E-02
RMM:   7    -0.231494638807E+04    0.44574E-04   -0.60608E-05  2898   0.554E-03    0.149E-02
RMM:   8    -0.231494638603E+04    0.20377E-05   -0.15128E-05  2920   0.293E-03
  48 F= -.23357873E+04 E0= -.23357873E+04  d E =-.845404E-02  mag=     6.0000
       N       E                     dE             d eps       ncg     rms          rms(c)
DAV:   1    -0.231492401602E+04    0.22372E-01   -0.16613E+00  4472   0.862E-01    0.442E-01
RMM:   2    -0.231495049384E+04   -0.26478E-01   -0.26170E-01  6048   0.197E-01    0.501E-01
RMM:   3    -0.231495060243E+04   -0.10859E-03   -0.25921E-02  5506   0.887E-02    0.224E-01
RMM:   4    -0.231495028950E+04    0.31293E-03   -0.27663E-03  4437   0.188E-02    0.116E-01
RMM:   5    -0.231495023415E+04    0.55349E-04   -0.50386E-04  3875   0.122E-02    0.108E-01
RMM:   6    -0.231495017848E+04    0.55673E-04   -0.33308E-04  3407   0.993E-03    0.673E-02
RMM:   7    -0.231495014484E+04    0.33643E-04   -0.75780E-05  2908   0.701E-03    0.160E-02
RMM:   8    -0.231495014226E+04    0.25752E-05   -0.16022E-05  2889   0.401E-03
  49 F= -.23357909E+04 E0= -.23357909E+04  d E =-.360868E-02  mag=     6.0000
       N       E                     dE             d eps       ncg     rms          rms(c)
DAV:   1    -0.231493736048E+04    0.12784E-01   -0.86013E-01  4528   0.620E-01    0.320E-01
RMM:   2    -0.231495122386E+04   -0.13863E-01   -0.13698E-01  6103   0.142E-01    0.364E-01
RMM:   3    -0.231495124563E+04   -0.21771E-04   -0.13389E-02  5122   0.605E-02    0.162E-01
RMM:   4    -0.231495108594E+04    0.15969E-03   -0.14493E-03  3568   0.137E-02    0.837E-02
RMM:   5    -0.231495105838E+04    0.27560E-04   -0.26240E-04  3306   0.897E-03    0.772E-02
RMM:   6    -0.231495103194E+04    0.26439E-04   -0.17416E-04  2972   0.801E-03    0.500E-02
RMM:   7    -0.231495101403E+04    0.17916E-04   -0.44823E-05  2898   0.578E-03    0.121E-02
RMM:   8    -0.231495101318E+04    0.84289E-06   -0.98020E-06  2884   0.356E-03
  50 F= -.23357916E+04 E0= -.23357916E+04  d E =-.436609E-02  mag=     6.0000
       N       E                     dE             d eps       ncg     rms          rms(c)
DAV:   1    -0.231492125780E+04    0.29756E-01   -0.18252E+00  4472   0.918E-01    0.471E-01
RMM:   2    -0.231495512460E+04   -0.33867E-01   -0.33827E-01  6264   0.217E-01    0.537E-01
RMM:   3    -0.231495560095E+04   -0.47635E-03   -0.31801E-02  5600   0.862E-02    0.245E-01
RMM:   4    -0.231495523959E+04    0.36136E-03   -0.35285E-03  4364   0.197E-02    0.128E-01
RMM:   5    -0.231495512918E+04    0.11042E-03   -0.53079E-04  3733   0.119E-02    0.107E-01
RMM:   6    -0.231495510096E+04    0.28214E-04   -0.42201E-04  3429   0.105E-02    0.835E-02
RMM:   7    -0.231495504940E+04    0.51565E-04   -0.10296E-04  2924   0.743E-03    0.181E-02
RMM:   8    -0.231495504656E+04    0.28369E-05   -0.19243E-05  2896   0.424E-03
  51 F= -.23357954E+04 E0= -.23357954E+04  d E =-.377418E-02  mag=     6.0000
       N       E                     dE             d eps       ncg     rms          rms(c)
DAV:   1    -0.231492428241E+04    0.30767E-01   -0.17414E+00  4500   0.899E-01    0.460E-01
RMM:   2    -0.231495664873E+04   -0.32366E-01   -0.32304E-01  6242   0.213E-01    0.527E-01
RMM:   3    -0.231495708459E+04   -0.43586E-03   -0.30534E-02  5589   0.836E-02    0.239E-01
RMM:   4    -0.231495674489E+04    0.33970E-03   -0.33828E-03  4308   0.192E-02    0.126E-01
RMM:   5    -0.231495665053E+04    0.94363E-04   -0.51424E-04  3637   0.116E-02    0.110E-01
RMM:   6    -0.231495660443E+04    0.46101E-04   -0.41055E-04  3431   0.104E-02    0.788E-02
RMM:   7    -0.231495656052E+04    0.43909E-04   -0.99264E-05  2921   0.742E-03    0.179E-02
RMM:   8    -0.231495655761E+04    0.29054E-05   -0.18675E-05  2896   0.430E-03
  52 F= -.23357966E+04 E0= -.23357966E+04  d E =-.501844E-02  mag=     6.0000
       N       E                     dE             d eps       ncg     rms          rms(c)
DAV:   1    -0.231492104810E+04    0.35512E-01   -0.24376E+00  4472   0.116E+00    0.533E-01
RMM:   2    -0.231496034510E+04   -0.39297E-01   -0.40039E-01  6068   0.254E-01    0.528E-01
RMM:   3    -0.231496176102E+04   -0.14159E-02   -0.38514E-02  5698   0.103E-01    0.300E-01
RMM:   4    -0.231496112444E+04    0.63658E-03   -0.43298E-03  4822   0.235E-02    0.142E-01
RMM:   5    -0.231496092754E+04    0.19690E-03   -0.66602E-04  4200   0.146E-02    0.957E-02
RMM:   6    -0.231496096751E+04   -0.39977E-04   -0.51597E-04  4091   0.119E-02    0.106E-01
RMM:   7    -0.231496087611E+04    0.91407E-04   -0.14178E-04  2986   0.842E-03    0.209E-02
RMM:   8    -0.231496087173E+04    0.43769E-05   -0.24083E-05  2921   0.432E-03
  53 F= -.23358002E+04 E0= -.23358002E+04  d E =-.357550E-02  mag=     6.0000
       N       E                     dE             d eps       ncg     rms          rms(c)
DAV:   1    -0.231495678849E+04    0.40876E-02   -0.27684E-01  4608   0.389E-01    0.179E-01
RMM:   2    -0.231496127289E+04   -0.44844E-02   -0.45812E-02  6177   0.874E-02    0.173E-01
RMM:   3    -0.231496145036E+04   -0.17747E-03   -0.43319E-03  3991   0.346E-02    0.101E-01
RMM:   4    -0.231496138233E+04    0.68031E-04   -0.49509E-04  2989   0.892E-03    0.487E-02
RMM:   5    -0.231496135997E+04    0.22356E-04   -0.78399E-05  2930   0.576E-03    0.306E-02
RMM:   6    -0.231496136675E+04   -0.67829E-05   -0.59873E-05  2908   0.536E-03
  54 F= -.23358005E+04 E0= -.23358005E+04  d E =-.381695E-02  mag=     6.0000
       N       E                     dE             d eps       ncg     rms          rms(c)
DAV:   1    -0.231491959280E+04    0.41767E-01   -0.28340E+00  4472   0.124E+00    0.553E-01
RMM:   2    -0.231496439402E+04   -0.44801E-01   -0.45918E-01  6053   0.270E-01    0.514E-01
RMM:   3    -0.231496686855E+04   -0.24745E-02   -0.45436E-02  5613   0.116E-01    0.324E-01
RMM:   4    -0.231496619032E+04    0.67823E-03   -0.50768E-03  4960   0.254E-02    0.148E-01
RMM:   5    -0.231496597337E+04    0.21695E-03   -0.64262E-04  4135   0.143E-02    0.913E-02
RMM:   6    -0.231496602506E+04   -0.51696E-04   -0.50710E-04  4159   0.122E-02    0.110E-01
RMM:   7    -0.231496592575E+04    0.99315E-04   -0.17072E-04  3009   0.885E-03    0.252E-02
RMM:   8    -0.231496591983E+04    0.59247E-05   -0.25941E-05  2921   0.432E-03
  55 F= -.23358040E+04 E0= -.23358040E+04  d E =-.357435E-02  mag=     6.0000
       N       E                     dE             d eps       ncg     rms          rms(c)
DAV:   1    -0.231495738547E+04    0.85403E-02   -0.57288E-01  4528   0.560E-01    0.248E-01
RMM:   2    -0.231496648945E+04   -0.91040E-02   -0.93264E-02  6236   0.122E-01    0.232E-01
RMM:   3    -0.231496695842E+04   -0.46897E-03   -0.89722E-03  4928   0.495E-02    0.144E-01
RMM:   4    -0.231496683184E+04    0.12658E-03   -0.10269E-03  3166   0.118E-02    0.659E-02
RMM:   5    -0.231496678416E+04    0.47686E-04   -0.12583E-04  3040   0.730E-03    0.361E-02
RMM:   6    -0.231496678843E+04   -0.42703E-05   -0.93997E-05  3048   0.685E-03
  56 F= -.23358044E+04 E0= -.23358044E+04  d E =-.399521E-02  mag=     6.0000
       N       E                     dE             d eps       ncg     rms          rms(c)
DAV:   1    -0.231491524159E+04    0.51543E-01   -0.34829E+00  4472   0.140E+00    0.593E-01
RMM:   2    -0.231496878542E+04   -0.53544E-01   -0.55285E-01  6034   0.297E-01    0.522E-01
RMM:   3    -0.231497266714E+04   -0.38817E-02   -0.59991E-02  5637   0.136E-01    0.345E-01
RMM:   4    -0.231497201155E+04    0.65559E-03   -0.63394E-03  5054   0.278E-02    0.162E-01
RMM:   5    -0.231497172962E+04    0.28193E-03   -0.70301E-04  4148   0.146E-02    0.888E-02
RMM:   6    -0.231497170706E+04    0.22558E-04   -0.47170E-04  4306   0.125E-02    0.525E-02
RMM:   7    -0.231497169268E+04    0.14382E-04   -0.85140E-05  2933   0.866E-03    0.286E-02
RMM:   8    -0.231497168898E+04    0.36973E-05   -0.25631E-05  2892   0.358E-03
  57 F= -.23358086E+04 E0= -.23358086E+04  d E =-.410145E-02  mag=     6.0000
       N       E                     dE             d eps       ncg     rms          rms(c)
DAV:   1    -0.231491950047E+04    0.52192E-01   -0.32948E+00  4472   0.137E+00    0.574E-01
RMM:   2    -0.231497044120E+04   -0.50941E-01   -0.52510E-01  6117   0.290E-01    0.509E-01
RMM:   3    -0.231497398628E+04   -0.35451E-02   -0.55976E-02  5690   0.128E-01    0.330E-01
RMM:   4    -0.231497340093E+04    0.58535E-03   -0.59610E-03  5040   0.268E-02    0.157E-01
RMM:   5    -0.231497314601E+04    0.25492E-03   -0.65992E-04  4100   0.142E-02    0.964E-02
RMM:   6    -0.231497317638E+04   -0.30372E-04   -0.56418E-04  4281   0.127E-02    0.103E-01
RMM:   7    -0.231497309817E+04    0.78215E-04   -0.17827E-04  3002   0.889E-03    0.395E-02
RMM:   8    -0.231497308622E+04    0.11951E-04   -0.33191E-05  2912   0.446E-03    0.173E-02
RMM:   9    -0.231497308360E+04    0.26143E-05   -0.16669E-05  2873   0.326E-03
  58 F= -.23358091E+04 E0= -.23358091E+04  d E =-.468925E-02  mag=     6.0000
       N       E                     dE             d eps       ncg     rms          rms(c)
DAV:   1    -0.231496705614E+04    0.60301E-02   -0.36261E-01  4528   0.455E-01    0.191E-01
RMM:   2    -0.231497270389E+04   -0.56478E-02   -0.58278E-02  6094   0.966E-02    0.167E-01
RMM:   3    -0.231497308506E+04   -0.38117E-03   -0.59814E-03  4366   0.427E-02    0.111E-01
RMM:   4    -0.231497301324E+04    0.71823E-04   -0.64623E-04  3003   0.966E-03    0.519E-02
RMM:   5    -0.231497298384E+04    0.29404E-04   -0.71561E-05  2925   0.558E-03    0.279E-02
RMM:   6    -0.231497298206E+04    0.17758E-05   -0.54011E-05  2949   0.526E-03
  59 F= -.23358093E+04 E0= -.23358093E+04  d E =-.485908E-02  mag=     6.0000
       N       E                     dE             d eps       ncg     rms          rms(c)
DAV:   1    -0.231495056897E+04    0.22415E-01   -0.15251E+00  4480   0.924E-01    0.383E-01
RMM:   2    -0.231497523916E+04   -0.24670E-01   -0.25431E-01  6358   0.198E-01    0.338E-01
RMM:   3    -0.231497697213E+04   -0.17330E-02   -0.25960E-02  5555   0.811E-02    0.224E-01
RMM:   4    -0.231497670758E+04    0.26455E-03   -0.27695E-03  3734   0.177E-02    0.109E-01
RMM:   5    -0.231497658909E+04    0.11849E-03   -0.29337E-04  3380   0.973E-03    0.762E-02
RMM:   6    -0.231497659333E+04   -0.42434E-05   -0.30297E-04  3204   0.936E-03    0.749E-02
RMM:   7    -0.231497655095E+04    0.42382E-04   -0.96715E-05  2935   0.716E-03    0.212E-02
RMM:   8    -0.231497654771E+04    0.32347E-05   -0.15073E-05  2909   0.418E-03
  60 F= -.23358124E+04 E0= -.23358124E+04  d E =-.312746E-02  mag=     6.0000
       N       E                     dE             d eps       ncg     rms          rms(c)
DAV:   1    -0.231474722557E+04    0.22933E+00   -0.13705E+01  4456   0.278E+00    0.114E+00
RMM:   2    -0.231496865642E+04   -0.22143E+00   -0.22883E+00  6277   0.596E-01    0.102E+00
RMM:   3    -0.231498625686E+04   -0.17600E-01   -0.25969E-01  5880   0.250E-01    0.676E-01
RMM:   4    -0.231498387397E+04    0.23829E-02   -0.25684E-02  5610   0.527E-02    0.333E-01
RMM:   5    -0.231498279117E+04    0.10828E-02   -0.26912E-03  4798   0.254E-02    0.223E-01
RMM:   6    -0.231498278151E+04    0.96658E-05   -0.24885E-03  5200   0.231E-02    0.221E-01
RMM:   7    -0.231498245033E+04    0.33118E-03   -0.90482E-04  4604   0.158E-02    0.922E-02
RMM:   8    -0.231498238552E+04    0.64813E-04   -0.17112E-04  3020   0.728E-03    0.367E-02
RMM:   9    -0.231498236854E+04    0.16975E-04   -0.69360E-05  2896   0.568E-03    0.155E-02
RMM:  10    -0.231498236990E+04   -0.13580E-05   -0.22375E-05  2914   0.357E-03
  61 F= -.23358169E+04 E0= -.23358169E+04  d E =-.756768E-02  mag=     6.0000
       N       E                     dE             d eps       ncg     rms          rms(c)
DAV:   1    -0.231495248218E+04    0.29886E-01   -0.18994E+00  4484   0.102E+00    0.427E-01
RMM:   2    -0.231498513019E+04   -0.32648E-01   -0.33659E-01  6342   0.221E-01    0.388E-01
RMM:   3    -0.231498738702E+04   -0.22568E-02   -0.34160E-02  5570   0.901E-02    0.250E-01
RMM:   4    -0.231498707843E+04    0.30859E-03   -0.36793E-03  3978   0.193E-02    0.122E-01
RMM:   5    -0.231498691741E+04    0.16102E-03   -0.33833E-04  3414   0.101E-02    0.760E-02
RMM:   6    -0.231498693786E+04   -0.20445E-04   -0.37529E-04  3527   0.101E-02    0.809E-02
RMM:   7    -0.231498688689E+04    0.50966E-04   -0.10791E-04  2928   0.716E-03    0.236E-02
RMM:   8    -0.231498688271E+04    0.41784E-05   -0.16026E-05  2913   0.346E-03
  62 F= -.23358208E+04 E0= -.23358208E+04  d E =-.394284E-02  mag=     6.0000
       N       E                     dE             d eps       ncg     rms          rms(c)
DAV:   1    -0.231468273250E+04    0.30415E+00   -0.17057E+01  4456   0.306E+00    0.127E+00
RMM:   2    -0.231497598587E+04   -0.29325E+00   -0.30352E+00  6376   0.670E-01    0.115E+00
RMM:   3    -0.231500058293E+04   -0.24597E-01   -0.34923E-01  5953   0.279E-01    0.767E-01
RMM:   4    -0.231499749201E+04    0.30909E-02   -0.33557E-02  5690   0.580E-02    0.378E-01
RMM:   5    -0.231499607553E+04    0.14165E-02   -0.32203E-03  4858   0.262E-02    0.251E-01
RMM:   6    -0.231499600055E+04    0.74979E-04   -0.31617E-03  5268   0.251E-02    0.242E-01
RMM:   7    -0.231499562231E+04    0.37824E-03   -0.11648E-03  4753   0.171E-02    0.108E-01
RMM:   8    -0.231499553402E+04    0.88290E-04   -0.21595E-04  3049   0.757E-03    0.415E-02
RMM:   9    -0.231499550701E+04    0.27012E-04   -0.99008E-05  2892   0.626E-03    0.169E-02
RMM:  10    -0.231499550671E+04    0.29839E-06   -0.27254E-05  2924   0.369E-03
  63 F= -.23358277E+04 E0= -.23358277E+04  d E =-.107950E-01  mag=     6.0000
       N       E                     dE             d eps       ncg     rms          rms(c)
DAV:   1    -0.231494505988E+04    0.50447E-01   -0.28596E+00  4480   0.125E+00    0.520E-01
RMM:   2    -0.231499420254E+04   -0.49143E-01   -0.50748E-01  6357   0.271E-01    0.469E-01
RMM:   3    -0.231499766469E+04   -0.34622E-02   -0.51617E-02  5755   0.110E-01    0.304E-01
RMM:   4    -0.231499719089E+04    0.47381E-03   -0.54777E-03  4595   0.234E-02    0.151E-01
RMM:   5    -0.231499693980E+04    0.25109E-03   -0.52175E-04  3748   0.119E-02    0.906E-02
RMM:   6    -0.231499694204E+04   -0.22479E-05   -0.53987E-04  4099   0.121E-02    0.814E-02
RMM:   7    -0.231499689560E+04    0.46446E-04   -0.13507E-04  2934   0.766E-03    0.344E-02
RMM:   8    -0.231499688546E+04    0.10143E-04   -0.21012E-05  2909   0.361E-03    0.143E-02
RMM:   9    -0.231499688288E+04    0.25708E-05   -0.14258E-05  2863   0.276E-03
  64 F= -.23358283E+04 E0= -.23358283E+04  d E =-.114215E-01  mag=     6.0000
       N       E                     dE             d eps       ncg     rms          rms(c)
DAV:   1    -0.231492953914E+04    0.67346E-01   -0.39692E+00  4440   0.144E+00    0.615E-01
RMM:   2    -0.231499821477E+04   -0.68676E-01   -0.71100E-01  6381   0.318E-01    0.534E-01
RMM:   3    -0.231500375042E+04   -0.55356E-02   -0.76446E-02  5813   0.134E-01    0.357E-01
RMM:   4    -0.231500309149E+04    0.65893E-03   -0.74801E-03  4981   0.274E-02    0.180E-01
RMM:   5    -0.231500273381E+04    0.35768E-03   -0.74505E-04  3948   0.138E-02    0.107E-01
RMM:   6    -0.231500268490E+04    0.48909E-04   -0.69872E-04  4400   0.136E-02    0.700E-02
RMM:   7    -0.231500266739E+04    0.17513E-04   -0.14997E-04  2939   0.861E-03    0.511E-02
RMM:   8    -0.231500264512E+04    0.22266E-04   -0.37273E-05  2905   0.401E-03    0.193E-02
RMM:   9    -0.231500263995E+04    0.51757E-05   -0.19902E-05  2876   0.304E-03
  65 F= -.23358331E+04 E0= -.23358331E+04  d E =-.482233E-02  mag=     6.0000
       N       E                     dE             d eps       ncg     rms          rms(c)
DAV:   1    -0.231492867876E+04    0.73966E-01   -0.42126E+00  4440   0.149E+00    0.633E-01
RMM:   2    -0.231500155566E+04   -0.72877E-01   -0.75497E-01  6371   0.328E-01    0.546E-01
RMM:   3    -0.231500747304E+04   -0.59174E-02   -0.81314E-02  5818   0.139E-01    0.367E-01
RMM:   4    -0.231500677683E+04    0.69621E-03   -0.79326E-03  5055   0.282E-02    0.186E-01
RMM:   5    -0.231500639329E+04    0.38354E-03   -0.79186E-04  3986   0.141E-02    0.109E-01
RMM:   6    -0.231500632138E+04    0.71911E-04   -0.71357E-04  4452   0.138E-02    0.566E-02
RMM:   7    -0.231500630913E+04    0.12245E-04   -0.11441E-04  2936   0.872E-03    0.381E-02
RMM:   8    -0.231500629892E+04    0.10220E-04   -0.32983E-05  2906   0.381E-03    0.233E-02
RMM:   9    -0.231500629217E+04    0.67452E-05   -0.19656E-05  2876   0.299E-03
  66 F= -.23358358E+04 E0= -.23358358E+04  d E =-.749725E-02  mag=     6.0000
       N       E                     dE             d eps       ncg     rms          rms(c)
DAV:   1    -0.231469315207E+04    0.31315E+00   -0.16813E+01  4440   0.297E+00    0.126E+00
RMM:   2    -0.231498538682E+04   -0.29223E+00   -0.30332E+00  6422   0.667E-01    0.110E+00
RMM:   3    -0.231501139856E+04   -0.26012E-01   -0.35225E-01  5979   0.282E-01    0.763E-01
RMM:   4    -0.231500812411E+04    0.32744E-02   -0.32305E-02  5816   0.572E-02    0.379E-01
RMM:   5    -0.231500658720E+04    0.15369E-02   -0.32739E-03  4822   0.260E-02    0.232E-01
RMM:   6    -0.231500617702E+04    0.41018E-03   -0.28714E-03  4947   0.249E-02    0.125E-01
RMM:   7    -0.231500613158E+04    0.45439E-04   -0.59625E-04  4193   0.166E-02    0.859E-02
RMM:   8    -0.231500608002E+04    0.51556E-04   -0.17059E-04  2973   0.645E-03    0.509E-02
RMM:   9    -0.231500604568E+04    0.34344E-04   -0.82833E-05  2892   0.546E-03    0.189E-02
RMM:  10    -0.231500604392E+04    0.17601E-05   -0.29550E-05  2911   0.340E-03
  67 F= -.23358336E+04 E0= -.23358336E+04  d E =-.525987E-02  mag=     6.0000
       N       E                     dE             d eps       ncg     rms          rms(c)
DAV:   1    -0.231483387401E+04    0.17217E+00   -0.92787E+00  4440   0.221E+00    0.950E-01
RMM:   2    -0.231499616975E+04   -0.16230E+00   -0.16844E+00  6365   0.496E-01    0.806E-01
RMM:   3    -0.231501014253E+04   -0.13973E-01   -0.19307E-01  5870   0.210E-01    0.571E-01
RMM:   4    -0.231500836812E+04    0.17744E-02   -0.17808E-02  5355   0.417E-02    0.283E-01
RMM:   5    -0.231500749486E+04    0.87326E-03   -0.20062E-03  4443   0.217E-02    0.176E-01
RMM:   6    -0.231500755237E+04   -0.57512E-04   -0.19055E-03  5011   0.201E-02    0.201E-01
RMM:   7    -0.231500724001E+04    0.31236E-03   -0.71779E-04  3865   0.140E-02    0.564E-02
RMM:   8    -0.231500721851E+04    0.21505E-04   -0.11356E-04  2975   0.599E-03    0.309E-02
RMM:   9    -0.231500720664E+04    0.11866E-04   -0.52392E-05  2886   0.486E-03    0.149E-02
RMM:  10    -0.231500720533E+04    0.13067E-05   -0.10661E-05  2907   0.253E-03
  68 F= -.23358362E+04 E0= -.23358362E+04  d E =-.790560E-02  mag=     6.0000
       N       E                     dE             d eps       ncg     rms          rms(c)
DAV:   1    -0.231499640090E+04    0.10806E-01   -0.96966E-01  4496   0.733E-01    0.304E-01
RMM:   2    -0.231501054168E+04   -0.14141E-01   -0.14806E-01  6078   0.154E-01    0.213E-01
RMM:   3    -0.231501179050E+04   -0.12488E-02   -0.15633E-02  5359   0.686E-02    0.162E-01
RMM:   4    -0.231501165040E+04    0.14010E-03   -0.15733E-03  3503   0.142E-02    0.884E-02
RMM:   5    -0.231501155760E+04    0.92803E-04   -0.21746E-04  3230   0.907E-03    0.462E-02
RMM:   6    -0.231501154362E+04    0.13984E-04   -0.14271E-04  3645   0.809E-03    0.234E-02
RMM:   7    -0.231501153924E+04    0.43767E-05   -0.21646E-05  2894   0.569E-03
  69 F= -.23358402E+04 E0= -.23358402E+04  d E =-.401058E-02  mag=     6.0000
       N       E                     dE             d eps       ncg     rms          rms(c)
DAV:   1    -0.231494920688E+04    0.62337E-01   -0.42433E+00  4452   0.153E+00    0.635E-01
RMM:   2    -0.231501104101E+04   -0.61834E-01   -0.64769E-01  6127   0.325E-01    0.453E-01
RMM:   3    -0.231501657128E+04   -0.55303E-02   -0.69913E-02  5705   0.144E-01    0.340E-01
RMM:   4    -0.231501597307E+04    0.59821E-03   -0.69473E-03  5339   0.293E-02    0.185E-01
RMM:   5    -0.231501558504E+04    0.38803E-03   -0.94474E-04  4485   0.168E-02    0.101E-01
RMM:   6    -0.231501551965E+04    0.65395E-04   -0.57761E-04  4619   0.137E-02    0.648E-02
RMM:   7    -0.231501550685E+04    0.12798E-04   -0.14712E-04  2961   0.950E-03    0.495E-02
RMM:   8    -0.231501548560E+04    0.21254E-04   -0.36015E-05  2888   0.424E-03    0.171E-02
RMM:   9    -0.231501548248E+04    0.31171E-05   -0.13427E-05  2884   0.290E-03
  70 F= -.23358435E+04 E0= -.23358435E+04  d E =-.727703E-02  mag=     6.0000
       N       E                     dE             d eps       ncg     rms          rms(c)
DAV:   1    -0.231500040189E+04    0.15084E-01   -0.12243E+00  4480   0.799E-01    0.328E-01
RMM:   2    -0.231501863413E+04   -0.18232E-01   -0.19133E-01  6190   0.169E-01    0.217E-01
RMM:   3    -0.231502035116E+04   -0.17170E-02   -0.20181E-02  5418   0.706E-02    0.161E-01
RMM:   4    -0.231502026025E+04    0.90915E-04   -0.20224E-03  3341   0.146E-02    0.984E-02
RMM:   5    -0.231502015147E+04    0.10878E-03   -0.23304E-04  3140   0.883E-03    0.530E-02
RMM:   6    -0.231502012825E+04    0.23213E-04   -0.18367E-04  3661   0.823E-03    0.249E-02
RMM:   7    -0.231502012387E+04    0.43811E-05   -0.24809E-05  2909   0.581E-03
  71 F= -.23358478E+04 E0= -.23358478E+04  d E =-.431174E-02  mag=     6.0000
       N       E                     dE             d eps       ncg     rms          rms(c)
DAV:   1    -0.231484800034E+04    0.17213E+00   -0.11006E+01  4440   0.240E+00    0.981E-01
RMM:   2    -0.231501259447E+04   -0.16459E+00   -0.17235E+00  6258   0.512E-01    0.697E-01
RMM:   3    -0.231502812757E+04   -0.15533E-01   -0.18960E-01  5888   0.213E-01    0.510E-01
RMM:   4    -0.231502700488E+04    0.11227E-02   -0.18245E-02  5758   0.434E-02    0.296E-01
RMM:   5    -0.231502609378E+04    0.91110E-03   -0.21201E-03  4780   0.220E-02    0.169E-01
RMM:   6    -0.231502590646E+04    0.18731E-03   -0.14834E-03  5020   0.193E-02    0.132E-01
RMM:   7    -0.231502583431E+04    0.72157E-04   -0.53547E-04  4129   0.130E-02    0.881E-02
RMM:   8    -0.231502575798E+04    0.76325E-04   -0.98185E-05  2941   0.590E-03    0.249E-02
RMM:   9    -0.231502574877E+04    0.92130E-05   -0.34506E-05  2890   0.447E-03
  72 F= -.23358524E+04 E0= -.23358524E+04  d E =-.895777E-02  mag=     6.0000
       N       E                     dE             d eps       ncg     rms          rms(c)
DAV:   1    -0.231500221975E+04    0.23538E-01   -0.16752E+00  4528   0.927E-01    0.378E-01
RMM:   2    -0.231502814138E+04   -0.25922E-01   -0.27219E-01  6325   0.200E-01    0.237E-01
RMM:   3    -0.231503069727E+04   -0.25559E-02   -0.28838E-02  5567   0.804E-02    0.174E-01
RMM:   4    -0.231503065265E+04    0.44620E-04   -0.28400E-03  3473   0.167E-02    0.118E-01
RMM:   5    -0.231503051099E+04    0.14166E-03   -0.30644E-04  3157   0.968E-03    0.639E-02
RMM:   6    -0.231503048112E+04    0.29870E-04   -0.24869E-04  3721   0.903E-03    0.348E-02
RMM:   7    -0.231503047937E+04    0.17576E-05   -0.51627E-05  2905   0.643E-03
  73 F= -.23358567E+04 E0= -.23358567E+04  d E =-.423591E-02  mag=     6.0000
       N       E                     dE             d eps       ncg     rms          rms(c)
DAV:   1    -0.231481977440E+04    0.21071E+00   -0.12720E+01  4440   0.256E+00    0.104E+00
RMM:   2    -0.231501748791E+04   -0.19771E+00   -0.20742E+00  6371   0.555E-01    0.698E-01
RMM:   3    -0.231503761306E+04   -0.20125E-01   -0.23250E-01  5928   0.227E-01    0.523E-01
RMM:   4    -0.231503679065E+04    0.82241E-03   -0.21950E-02  5838   0.465E-02    0.328E-01
RMM:   5    -0.231503577849E+04    0.10122E-02   -0.23185E-03  4757   0.219E-02    0.193E-01
RMM:   6    -0.231503554650E+04    0.23199E-03   -0.18668E-03  5031   0.205E-02    0.147E-01
RMM:   7    -0.231503545631E+04    0.90191E-04   -0.67490E-04  3996   0.138E-02    0.929E-02
RMM:   8    -0.231503537565E+04    0.80664E-04   -0.10372E-04  2936   0.621E-03    0.259E-02
RMM:   9    -0.231503536730E+04    0.83457E-05   -0.40827E-05  2902   0.462E-03
  74 F= -.23358602E+04 E0= -.23358602E+04  d E =-.775731E-02  mag=     6.0000
       N       E                     dE             d eps       ncg     rms          rms(c)
DAV:   1    -0.231502609502E+04    0.92806E-02   -0.54816E-01  4560   0.531E-01    0.216E-01
RMM:   2    -0.231503455294E+04   -0.84579E-02   -0.88790E-02  6329   0.115E-01    0.134E-01
RMM:   3    -0.231503542825E+04   -0.87531E-03   -0.98855E-03  4562   0.477E-02    0.104E-01
RMM:   4    -0.231503539959E+04    0.28663E-04   -0.92802E-04  3033   0.102E-02    0.659E-02
RMM:   5    -0.231503535288E+04    0.46704E-04   -0.10205E-04  2937   0.596E-03    0.385E-02
RMM:   6    -0.231503534594E+04    0.69381E-05   -0.92812E-05  2966   0.586E-03
  75 F= -.23358605E+04 E0= -.23358605E+04  d E =-.802026E-02  mag=     6.0000
       N       E                     dE             d eps       ncg     rms          rms(c)
DAV:   1    -0.231502339884E+04    0.11954E-01   -0.87472E-01  4464   0.732E-01    0.294E-01
RMM:   2    -0.231503753203E+04   -0.14133E-01   -0.14850E-01  6211   0.160E-01    0.167E-01
RMM:   3    -0.231503894396E+04   -0.14119E-02   -0.16589E-02  5455   0.729E-02    0.128E-01
RMM:   4    -0.231503891528E+04    0.28682E-04   -0.15372E-03  3425   0.142E-02    0.967E-02
RMM:   5    -0.231503881389E+04    0.10138E-03   -0.20134E-04  3167   0.885E-03    0.462E-02
RMM:   6    -0.231503879159E+04    0.22299E-04   -0.15147E-04  3754   0.840E-03    0.262E-02
RMM:   7    -0.231503878846E+04    0.31335E-05   -0.28828E-05  2889   0.598E-03
  76 F= -.23358637E+04 E0= -.23358637E+04  d E =-.321519E-02  mag=     6.0000
       N       E                     dE             d eps       ncg     rms          rms(c)
DAV:   1    -0.231502286065E+04    0.15931E-01   -0.97112E-01  4464   0.771E-01    0.313E-01
RMM:   2    -0.231503844592E+04   -0.15585E-01   -0.16482E-01  6088   0.167E-01    0.165E-01
RMM:   3    -0.231504005591E+04   -0.16100E-02   -0.18955E-02  5407   0.802E-02    0.108E-01
RMM:   4    -0.231504011070E+04   -0.54787E-04   -0.17066E-03  3728   0.147E-02    0.101E-01
RMM:   5    -0.231504001214E+04    0.98552E-04   -0.24126E-04  3071   0.930E-03    0.538E-02
RMM:   6    -0.231503997961E+04    0.32534E-04   -0.16073E-04  3945   0.840E-03    0.191E-02
RMM:   7    -0.231503997970E+04   -0.92768E-07   -0.23699E-05  2906   0.616E-03
  77 F= -.23358646E+04 E0= -.23358646E+04  d E =-.416598E-02  mag=     6.0000
       N       E                     dE             d eps       ncg     rms          rms(c)
DAV:   1    -0.231502875860E+04    0.11221E-01   -0.73636E-01  4512   0.662E-01    0.268E-01
RMM:   2    -0.231504108025E+04   -0.12322E-01   -0.13031E-01  6134   0.143E-01    0.141E-01
RMM:   3    -0.231504238552E+04   -0.13053E-02   -0.14988E-02  5189   0.704E-02    0.818E-02
RMM:   4    -0.231504244420E+04   -0.58682E-04   -0.13449E-03  3272   0.124E-02    0.758E-02
RMM:   5    -0.231504240660E+04    0.37603E-04   -0.14476E-04  2921   0.723E-03    0.563E-02
RMM:   6    -0.231504237375E+04    0.32846E-04   -0.11693E-04  3239   0.687E-03    0.197E-02
RMM:   7    -0.231504237341E+04    0.34009E-06   -0.16790E-05  2921   0.507E-03
  78 F= -.23358670E+04 E0= -.23358670E+04  d E =-.242499E-02  mag=     6.0000
       N       E                     dE             d eps       ncg     rms          rms(c)
DAV:   1    -0.231502224643E+04    0.20127E-01   -0.11409E+00  4480   0.824E-01    0.333E-01
RMM:   2    -0.231504134439E+04   -0.19098E-01   -0.20158E-01  6145   0.179E-01    0.184E-01
RMM:   3    -0.231504336368E+04   -0.20193E-02   -0.23215E-02  5441   0.861E-02    0.118E-01
RMM:   4    -0.231504342834E+04   -0.64662E-04   -0.21272E-03  3549   0.155E-02    0.105E-01
RMM:   5    -0.231504333618E+04    0.92160E-04   -0.23354E-04  3030   0.896E-03    0.613E-02
RMM:   6    -0.231504331138E+04    0.24799E-04   -0.19712E-04  3766   0.850E-03    0.478E-02
RMM:   7    -0.231504329671E+04    0.14671E-04   -0.57273E-05  2924   0.643E-03    0.226E-02
RMM:   8    -0.231504329160E+04    0.51137E-05   -0.94545E-06  2886   0.294E-03
  79 F= -.23358680E+04 E0= -.23358680E+04  d E =-.338266E-02  mag=     6.0000
       N       E                     dE             d eps       ncg     rms          rms(c)
DAV:   1    -0.231502733471E+04    0.15962E-01   -0.11162E+00  4464   0.835E-01    0.326E-01
RMM:   2    -0.231504459675E+04   -0.17262E-01   -0.18109E-01  5955   0.175E-01    0.211E-01
RMM:   3    -0.231504628044E+04   -0.16837E-02   -0.20371E-02  5395   0.838E-02    0.151E-01
RMM:   4    -0.231504621174E+04    0.68697E-04   -0.18413E-03  3633   0.153E-02    0.899E-02
RMM:   5    -0.231504612505E+04    0.86696E-04   -0.19829E-04  3154   0.909E-03    0.510E-02
RMM:   6    -0.231504611801E+04    0.70373E-05   -0.17237E-04  3790   0.855E-03    0.454E-02
RMM:   7    -0.231504610440E+04    0.13607E-04   -0.43777E-05  2900   0.618E-03    0.232E-02
RMM:   8    -0.231504610017E+04    0.42317E-05   -0.10043E-05  2874   0.267E-03
  80 F= -.23358709E+04 E0= -.23358709E+04  d E =-.292909E-02  mag=     6.0000
       N       E                     dE             d eps       ncg     rms          rms(c)
DAV:   1    -0.231501010286E+04    0.36002E-01   -0.21561E+00  4440   0.116E+00    0.455E-01
RMM:   2    -0.231504356364E+04   -0.33461E-01   -0.35101E-01  5953   0.243E-01    0.294E-01
RMM:   3    -0.231504681889E+04   -0.32552E-02   -0.39663E-02  5543   0.117E-01    0.209E-01
RMM:   4    -0.231504669459E+04    0.12430E-03   -0.35526E-03  4603   0.211E-02    0.126E-01
RMM:   5    -0.231504652321E+04    0.17138E-03   -0.38744E-04  3838   0.119E-02    0.694E-02
RMM:   6    -0.231504648602E+04    0.37195E-04   -0.29082E-04  4203   0.104E-02    0.420E-02
RMM:   7    -0.231504647642E+04    0.95948E-05   -0.56724E-05  2902   0.775E-03
  81 F= -.23358715E+04 E0= -.23358715E+04  d E =-.347167E-02  mag=     6.0000
       N       E                     dE             d eps       ncg     rms          rms(c)
DAV:   1    -0.231504260950E+04    0.38765E-02   -0.25131E-01  4528   0.395E-01    0.150E-01
RMM:   2    -0.231504647778E+04   -0.38683E-02   -0.40418E-02  6067   0.831E-02    0.922E-02
RMM:   3    -0.231504685503E+04   -0.37726E-03   -0.45241E-03  3777   0.364E-02    0.659E-02
RMM:   4    -0.231504684520E+04    0.98326E-05   -0.40262E-04  2980   0.801E-03    0.451E-02
RMM:   5    -0.231504682438E+04    0.20819E-04   -0.49748E-05  2892   0.470E-03    0.277E-02
RMM:   6    -0.231504682162E+04    0.27649E-05   -0.44285E-05  2926   0.461E-03
  82 F= -.23358718E+04 E0= -.23358718E+04  d E =-.376031E-02  mag=     6.0000
       N       E                     dE             d eps       ncg     rms          rms(c)
DAV:   1    -0.231503090012E+04    0.15924E-01   -0.12728E+00  4480   0.888E-01    0.340E-01
RMM:   2    -0.231504841442E+04   -0.17514E-01   -0.18104E-01  6147   0.184E-01    0.262E-01
RMM:   3    -0.231504975895E+04   -0.13445E-02   -0.19818E-02  5611   0.826E-02    0.175E-01
RMM:   4    -0.231504958918E+04    0.16977E-03   -0.18050E-03  3772   0.162E-02    0.888E-02
RMM:   5    -0.231504951033E+04    0.78851E-04   -0.21566E-04  3275   0.930E-03    0.668E-02
RMM:   6    -0.231504949831E+04    0.12021E-04   -0.19219E-04  3185   0.858E-03    0.612E-02
RMM:   7    -0.231504946775E+04    0.30558E-04   -0.65833E-05  2956   0.696E-03    0.159E-02
RMM:   8    -0.231504946605E+04    0.17067E-05   -0.11694E-05  2896   0.447E-03
  83 F= -.23358744E+04 E0= -.23358744E+04  d E =-.266252E-02  mag=     6.0000
       N       E                     dE             d eps       ncg     rms          rms(c)
DAV:   1    -0.231503593873E+04    0.13529E-01   -0.96840E-01  4480   0.780E-01    0.296E-01
RMM:   2    -0.231504919058E+04   -0.13252E-01   -0.13766E-01  5983   0.160E-01    0.214E-01
RMM:   3    -0.231505026911E+04   -0.10785E-02   -0.15063E-02  5302   0.743E-02    0.147E-01
RMM:   4    -0.231505016748E+04    0.10163E-03   -0.13793E-03  3470   0.141E-02    0.775E-02
RMM:   5    -0.231505009755E+04    0.69923E-04   -0.16117E-04  3086   0.843E-03    0.460E-02
RMM:   6    -0.231505010280E+04   -0.52495E-05   -0.14284E-04  3376   0.798E-03    0.524E-02
RMM:   7    -0.231505008089E+04    0.21910E-04   -0.43978E-05  2903   0.610E-03    0.176E-02
RMM:   8    -0.231505007848E+04    0.24099E-05   -0.10060E-05  2887   0.308E-03
  84 F= -.23358751E+04 E0= -.23358751E+04  d E =-.329009E-02  mag=     6.0000
       N       E                     dE             d eps       ncg     rms          rms(c)
DAV:   1    -0.231503486393E+04    0.15217E-01   -0.14378E+00  4452   0.952E-01    0.343E-01
RMM:   2    -0.231505168067E+04   -0.16817E-01   -0.17336E-01  5938   0.187E-01    0.255E-01
[...]
RMM:   3    -0.231508740908E+04    0.10727E-04   -0.21579E-05  2713   0.434E-03    0.935E-03
RMM:   4    -0.231508740850E+04    0.58087E-06   -0.32728E-06  2624   0.165E-03
 159 F= -.23359521E+04 E0= -.23359521E+04  d E =-.133171E-03  mag=     6.0000
       N       E                     dE             d eps       ncg     rms          rms(c)
DAV:   1    -0.231508701468E+04    0.39440E-03   -0.57451E-02  4472   0.231E-01    0.797E-02
RMM:   2    -0.231508745522E+04   -0.44054E-03   -0.47350E-03  5848   0.418E-02    0.411E-02
RMM:   3    -0.231508748538E+04   -0.30167E-04   -0.48914E-04  3394   0.183E-02    0.367E-02
RMM:   4    -0.231508747487E+04    0.10516E-04   -0.54182E-05  2906   0.517E-03    0.221E-02
RMM:   5    -0.231508746965E+04    0.52132E-05   -0.22793E-05  2904   0.412E-03
 160 F= -.23359523E+04 E0= -.23359523E+04  d E =-.147908E-03  mag=     6.0000
       N       E                     dE             d eps       ncg     rms          rms(c)
DAV:   1    -0.231508745671E+04    0.18155E-04   -0.41978E-04  5176   0.204E-02    0.135E-02
RMM:   2    -0.231508746749E+04   -0.10774E-04   -0.56076E-05  2900   0.506E-03    0.306E-02
RMM:   3    -0.231508745976E+04    0.77317E-05   -0.10813E-05  2557   0.319E-03
 161 F= -.23359523E+04 E0= -.23359523E+04  d E =-.145765E-03  mag=     6.0000
       N       E                     dE             d eps       ncg     rms          rms(c)
DAV:   1    -0.231508709472E+04    0.37276E-03   -0.57017E-02  4472   0.222E-01    0.747E-02
RMM:   2    -0.231508750736E+04   -0.41264E-03   -0.44038E-03  5800   0.400E-02    0.368E-02
RMM:   3    -0.231508753187E+04   -0.24513E-04   -0.44130E-04  3278   0.172E-02    0.297E-02
RMM:   4    -0.231508752701E+04    0.48636E-05   -0.51217E-05  2920   0.493E-03
 162 F= -.23359524E+04 E0= -.23359524E+04  d E =-.123512E-03  mag=     6.0000
       N       E                     dE             d eps       ncg     rms          rms(c)
DAV:   1    -0.231508751384E+04    0.18030E-04   -0.26204E-04  5288   0.162E-02    0.116E-02
RMM:   2    -0.231508751925E+04   -0.54072E-05   -0.35381E-05  2844   0.407E-03
 163 F= -.23359524E+04 E0= -.23359524E+04  d E =-.119896E-03  mag=     6.0000
       N       E                     dE             d eps       ncg     rms          rms(c)
DAV:   1    -0.231508714501E+04    0.36883E-03   -0.56459E-02  4456   0.216E-01    0.731E-02
RMM:   2    -0.231508755277E+04   -0.40776E-03   -0.43286E-03  5902   0.409E-02    0.347E-02
RMM:   3    -0.231508757993E+04   -0.27155E-04   -0.45580E-04  3391   0.180E-02    0.291E-02
RMM:   4    -0.231508757768E+04    0.22468E-05   -0.50678E-05  2918   0.465E-03
 164 F= -.23359525E+04 E0= -.23359525E+04  d E =-.129385E-03  mag=     6.0000
       N       E                     dE             d eps       ncg     rms          rms(c)
DAV:   1    -0.231508754985E+04    0.30080E-04   -0.11653E-03  5216   0.316E-02    0.177E-02
RMM:   2    -0.231508756599E+04   -0.16145E-04   -0.11568E-04  2993   0.724E-03    0.308E-02
RMM:   3    -0.231508755893E+04    0.70658E-05   -0.17171E-05  2652   0.421E-03
 165 F= -.23359525E+04 E0= -.23359525E+04  d E =-.121267E-03  mag=     6.0000
       N       E                     dE             d eps       ncg     rms          rms(c)
DAV:   1    -0.231508713353E+04    0.43246E-03   -0.58222E-02  4456   0.218E-01    0.712E-02
RMM:   2    -0.231508756399E+04   -0.43046E-03   -0.45842E-03  5873   0.401E-02    0.321E-02
RMM:   3    -0.231508758817E+04   -0.24175E-04   -0.44519E-04  3187   0.167E-02    0.201E-02
RMM:   4    -0.231508758642E+04    0.17477E-05   -0.51363E-05  2954   0.480E-03
 166 F= -.23359526E+04 E0= -.23359526E+04  d E =-.114582E-03  mag=     6.0000
       N       E                     dE             d eps       ncg     rms          rms(c)
DAV:   1    -0.231508756030E+04    0.27870E-04   -0.13253E-03  5152   0.334E-02    0.196E-02
RMM:   2    -0.231508758702E+04   -0.26722E-04   -0.14553E-04  3073   0.773E-03    0.454E-02
RMM:   3    -0.231508756961E+04    0.17414E-04   -0.24602E-05  2716   0.465E-03    0.615E-03
RMM:   4    -0.231508756926E+04    0.34281E-06   -0.34090E-06  2594   0.155E-03
 167 F= -.23359526E+04 E0= -.23359526E+04  d E =-.111002E-03  mag=     6.0000
       N       E                     dE             d eps       ncg     rms          rms(c)
DAV:   1    -0.231508724608E+04    0.32352E-03   -0.45958E-02  4472   0.190E-01    0.607E-02
RMM:   2    -0.231508758281E+04   -0.33673E-03   -0.35433E-03  5889   0.350E-02    0.327E-02
RMM:   3    -0.231508760574E+04   -0.22925E-04   -0.35178E-04  3053   0.144E-02    0.293E-02
RMM:   4    -0.231508759942E+04    0.63171E-05   -0.38494E-05  2915   0.399E-03
 168 F= -.23359527E+04 E0= -.23359527E+04  d E =-.120364E-03  mag=     6.0000
       N       E                     dE             d eps       ncg     rms          rms(c)
DAV:   1    -0.231508743660E+04    0.16913E-03   -0.14966E-02  4472   0.109E-01    0.356E-02
RMM:   2    -0.231508754775E+04   -0.11115E-03   -0.11732E-03  5661   0.203E-02    0.225E-02
RMM:   3    -0.231508755740E+04   -0.96491E-05   -0.13227E-04  2894   0.910E-03    0.247E-02
RMM:   4    -0.231508755281E+04    0.45897E-05   -0.14842E-05  2888   0.262E-03
 169 F= -.23359527E+04 E0= -.23359527E+04  d E =-.125803E-03  mag=     6.0000
       N       E                     dE             d eps       ncg     rms          rms(c)
DAV:   1    -0.231508724208E+04    0.31531E-03   -0.50658E-02  4472   0.193E-01    0.605E-02
RMM:   2    -0.231508758862E+04   -0.34653E-03   -0.36531E-03  5896   0.350E-02    0.300E-02
RMM:   3    -0.231508761312E+04   -0.24500E-04   -0.36259E-04  3037   0.147E-02    0.309E-02
RMM:   4    -0.231508760982E+04    0.32937E-05   -0.41716E-05  2923   0.401E-03
 170 F= -.23359529E+04 E0= -.23359529E+04  d E =-.131854E-03  mag=     6.0000
       N       E                     dE             d eps       ncg     rms          rms(c)
DAV:   1    -0.231508735832E+04    0.25479E-03   -0.29230E-02  4472   0.147E-01    0.479E-02
RMM:   2    -0.231508756002E+04   -0.20170E-03   -0.21199E-03  5630   0.264E-02    0.304E-02
RMM:   3    -0.231508757467E+04   -0.14651E-04   -0.22763E-04  3015   0.135E-02    0.293E-02
RMM:   4    -0.231508756880E+04    0.58721E-05   -0.25319E-05  2893   0.336E-03
 171 F= -.23359529E+04 E0= -.23359529E+04  d E =-.147938E-03  mag=     6.0000
       N       E                     dE             d eps       ncg     rms          rms(c)
DAV:   1    -0.231508722497E+04    0.34970E-03   -0.61163E-02  4472   0.207E-01    0.655E-02
RMM:   2    -0.231508761542E+04   -0.39045E-03   -0.40981E-03  5890   0.369E-02    0.382E-02
RMM:   3    -0.231508764708E+04   -0.31652E-04   -0.42261E-04  3061   0.155E-02    0.457E-02
RMM:   4    -0.231508763320E+04    0.13881E-04   -0.46521E-05  2903   0.447E-03    0.197E-02
RMM:   5    -0.231508763029E+04    0.29036E-05   -0.19492E-05  2914   0.337E-03
 172 F= -.23359530E+04 E0= -.23359530E+04  d E =-.145382E-03  mag=     6.0000
       N       E                     dE             d eps       ncg     rms          rms(c)
DAV:   1    -0.231508735673E+04    0.27647E-03   -0.33351E-02  4472   0.153E-01    0.486E-02
RMM:   2    -0.231508757286E+04   -0.21613E-03   -0.22746E-03  5808   0.287E-02    0.298E-02
RMM:   3    -0.231508759041E+04   -0.17551E-04   -0.24089E-04  2933   0.121E-02    0.368E-02
RMM:   4    -0.231508758066E+04    0.97541E-05   -0.26108E-05  2899   0.360E-03
 173 F= -.23359530E+04 E0= -.23359530E+04  d E =-.157754E-03  mag=     6.0000
       N       E                     dE             d eps       ncg     rms          rms(c)
DAV:   1    -0.231508714631E+04    0.44410E-03   -0.71440E-02  4472   0.221E-01    0.689E-02
RMM:   2    -0.231508758493E+04   -0.43862E-03   -0.46110E-03  5690   0.387E-02    0.398E-02
RMM:   3    -0.231508760496E+04   -0.20027E-04   -0.43593E-04  3199   0.174E-02    0.379E-02
RMM:   4    -0.231508759493E+04    0.10031E-04   -0.49928E-05  2931   0.450E-03    0.223E-02
RMM:   5    -0.231508759291E+04    0.20200E-05   -0.20312E-05  2896   0.335E-03
 174 F= -.23359532E+04 E0= -.23359532E+04  d E =-.122953E-03  mag=     6.0000
       N       E                     dE             d eps       ncg     rms          rms(c)
DAV:   1    -0.231508739756E+04    0.19737E-03   -0.21292E-02  4496   0.121E-01    0.391E-02
RMM:   2    -0.231508753101E+04   -0.13345E-03   -0.13915E-03  5544   0.228E-02    0.284E-02
RMM:   3    -0.231508753904E+04   -0.80314E-05   -0.15366E-04  2914   0.975E-03    0.246E-02
RMM:   4    -0.231508753358E+04    0.54625E-05   -0.15434E-05  2892   0.312E-03
 175 F= -.23359532E+04 E0= -.23359532E+04  d E =-.124291E-03  mag=     6.0000
       N       E                     dE             d eps       ncg     rms          rms(c)
DAV:   1    -0.231508711107E+04    0.42797E-03   -0.74330E-02  4472   0.228E-01    0.707E-02
RMM:   2    -0.231508755085E+04   -0.43978E-03   -0.46202E-03  5850   0.400E-02    0.387E-02
RMM:   3    -0.231508757525E+04   -0.24399E-04   -0.42670E-04  3175   0.166E-02    0.404E-02
RMM:   4    -0.231508756668E+04    0.85699E-05   -0.51786E-05  2925   0.458E-03
 176 F= -.23359533E+04 E0= -.23359533E+04  d E =-.142166E-03  mag=     6.0000
       N       E                     dE             d eps       ncg     rms          rms(c)
DAV:   1    -0.231508736521E+04    0.21004E-03   -0.23669E-02  4484   0.129E-01    0.419E-02
RMM:   2    -0.231508750765E+04   -0.14243E-03   -0.14937E-03  5660   0.227E-02    0.290E-02
RMM:   3    -0.231508751738E+04   -0.97357E-05   -0.16665E-04  2941   0.109E-02    0.325E-02
RMM:   4    -0.231508750895E+04    0.84353E-05   -0.20239E-05  2890   0.309E-03
 177 F= -.23359533E+04 E0= -.23359533E+04  d E =-.146571E-03  mag=     6.0000
       N       E                     dE             d eps       ncg     rms          rms(c)
DAV:   1    -0.231508720779E+04    0.30959E-03   -0.56363E-02  4472   0.203E-01    0.687E-02
RMM:   2    -0.231508754381E+04   -0.33602E-03   -0.34972E-03  5805   0.359E-02    0.491E-02
RMM:   3    -0.231508755792E+04   -0.14108E-04   -0.36202E-04  3162   0.157E-02    0.453E-02
RMM:   4    -0.231508754012E+04    0.17802E-04   -0.41555E-05  2912   0.470E-03    0.197E-02
RMM:   5    -0.231508754088E+04   -0.76066E-06   -0.19454E-05  2889   0.341E-03
 178 F= -.23359534E+04 E0= -.23359534E+04  d E =-.124100E-03  mag=     6.0000
       N       E                     dE             d eps       ncg     rms          rms(c)
DAV:   1    -0.231508748536E+04    0.54757E-04   -0.39679E-03  5056   0.541E-02    0.192E-02
RMM:   2    -0.231508751058E+04   -0.25218E-04   -0.26023E-04  3534   0.111E-02    0.156E-02
RMM:   3    -0.231508751230E+04   -0.17257E-05   -0.33797E-05  2865   0.627E-03
 179 F= -.23359534E+04 E0= -.23359534E+04  d E =-.120448E-03  mag=     6.0000
       N       E                     dE             d eps       ncg     rms          rms(c)
DAV:   1    -0.231508729948E+04    0.21110E-03   -0.40921E-02  4472   0.176E-01    0.599E-02
RMM:   2    -0.231508753766E+04   -0.23818E-03   -0.25422E-03  5733   0.317E-02    0.301E-02
RMM:   3    -0.231508754487E+04   -0.72083E-05   -0.23172E-04  3105   0.141E-02    0.241E-02
RMM:   4    -0.231508754170E+04    0.31642E-05   -0.29869E-05  2927   0.398E-03
 180 F= -.23359535E+04 E0= -.23359535E+04  d E =-.883418E-04  mag=     6.0000
       N       E                     dE             d eps       ncg     rms          rms(c)
DAV:   1    -0.231508752104E+04    0.23826E-04   -0.10928E-03  5184   0.292E-02    0.152E-02
RMM:   2    -0.231508753237E+04   -0.11326E-04   -0.82540E-05  2976   0.640E-03    0.261E-02
RMM:   3    -0.231508752744E+04    0.49279E-05   -0.13190E-05  2605   0.380E-03
 181 F= -.23359535E+04 E0= -.23359535E+04  d E =-.841060E-04  mag=     6.0000
       N       E                     dE             d eps       ncg     rms          rms(c)
DAV:   1    -0.231508743493E+04    0.97435E-04   -0.25433E-02  4472   0.144E-01    0.512E-02
RMM:   2    -0.231508756818E+04   -0.13325E-03   -0.14474E-03  5668   0.256E-02    0.262E-02
RMM:   3    -0.231508757307E+04   -0.48918E-05   -0.13392E-04  2992   0.115E-02    0.276E-02
RMM:   4    -0.231508756615E+04    0.69170E-05   -0.19515E-05  2884   0.346E-03
 182 F= -.23359536E+04 E0= -.23359536E+04  d E =-.821363E-04  mag=     6.0000
       N       E                     dE             d eps       ncg     rms          rms(c)
DAV:   1    -0.231508754937E+04    0.23701E-04   -0.10628E-03  5152   0.298E-02    0.171E-02
RMM:   2    -0.231508756323E+04   -0.13855E-04   -0.85558E-05  3014   0.653E-03    0.334E-02
RMM:   3    -0.231508755421E+04    0.90177E-05   -0.15151E-05  2615   0.394E-03
 183 F= -.23359536E+04 E0= -.23359536E+04  d E =-.793946E-04  mag=     6.0000
       N       E                     dE             d eps       ncg     rms          rms(c)
DAV:   1    -0.231508742285E+04    0.14037E-03   -0.21143E-02  4472   0.131E-01    0.455E-02
RMM:   2    -0.231508752958E+04   -0.10673E-03   -0.11703E-03  5624   0.233E-02    0.194E-02
RMM:   3    -0.231508752982E+04   -0.23608E-06   -0.99814E-05  2951   0.110E-02
 184 F= -.23359537E+04 E0= -.23359537E+04  d E =-.501331E-04  mag=     6.0000
       N       E                     dE             d eps       ncg     rms          rms(c)
DAV:   1    -0.231508753010E+04   -0.52292E-06   -0.16738E-05  3952   0.545E-03    0.161E-02
RMM:   2    -0.231508754052E+04   -0.10417E-04   -0.34442E-05  2787   0.354E-03    0.361E-02
RMM:   3    -0.231508752793E+04    0.12593E-04   -0.10132E-05  2397   0.242E-03    0.376E-03
RMM:   4    -0.231508752797E+04   -0.45722E-07   -0.16051E-06  1995   0.106E-03
 185 F= -.23359537E+04 E0= -.23359537E+04  d E =-.485566E-04  mag=     6.0000
       N       E                     dE             d eps       ncg     rms          rms(c)
DAV:   1    -0.231508743388E+04    0.94051E-04   -0.16355E-02  4504   0.118E-01    0.416E-02
RMM:   2    -0.231508750941E+04   -0.75534E-04   -0.83753E-04  5476   0.207E-02    0.190E-02
RMM:   3    -0.231508751039E+04   -0.97739E-06   -0.72559E-05  2918   0.955E-03
 186 F= -.23359537E+04 E0= -.23359537E+04  d E =-.490275E-04  mag=     6.0000
       N       E                     dE             d eps       ncg     rms          rms(c)
DAV:   1    -0.231508750121E+04    0.82038E-05   -0.88008E-05  5272   0.981E-03    0.110E-02
RMM:   2    -0.231508750261E+04   -0.14066E-05   -0.12198E-05  2554   0.260E-03
 187 F= -.23359537E+04 E0= -.23359537E+04  d E =-.462171E-04  mag=     6.0000
       N       E                     dE             d eps       ncg     rms          rms(c)
DAV:   1    -0.231508743784E+04    0.63368E-04   -0.13333E-02  4472   0.106E-01    0.376E-02
RMM:   2    -0.231508749709E+04   -0.59250E-04   -0.65768E-04  5262   0.189E-02    0.172E-02
RMM:   3    -0.231508749790E+04   -0.80917E-06   -0.62829E-05  2927   0.990E-03
 188 F= -.23359537E+04 E0= -.23359537E+04  d E =-.412664E-04  mag=     6.0000
       N       E                     dE             d eps       ncg     rms          rms(c)
DAV:   1    -0.231508748927E+04    0.78195E-05   -0.17516E-04  5280   0.132E-02    0.137E-02
RMM:   2    -0.231508749508E+04   -0.58075E-05   -0.22290E-05  2695   0.331E-03
 189 F= -.23359537E+04 E0= -.23359537E+04  d E =-.438690E-04  mag=     6.0000
       N       E                     dE             d eps       ncg     rms          rms(c)
DAV:   1    -0.231508743697E+04    0.52294E-04   -0.13385E-02  4472   0.106E-01    0.366E-02
RMM:   2    -0.231508749533E+04   -0.58357E-04   -0.64956E-04  5168   0.192E-02    0.161E-02
RMM:   3    -0.231508749424E+04    0.10935E-05   -0.53484E-05  2935   0.957E-03
 190 F= -.23359538E+04 E0= -.23359538E+04  d E =-.293849E-04  mag=     6.0000
       N       E                     dE             d eps       ncg     rms          rms(c)
DAV:   1    -0.231508748847E+04    0.68643E-05   -0.18731E-04  5192   0.132E-02    0.130E-02
RMM:   2    -0.231508749484E+04   -0.63774E-05   -0.25602E-05  2694   0.346E-03
 191 F= -.23359538E+04 E0= -.23359538E+04  d E =-.337370E-04  mag=     6.0000
       N       E                     dE             d eps       ncg     rms          rms(c)
DAV:   1    -0.231508745202E+04    0.36442E-04   -0.86826E-03  4472   0.839E-02    0.287E-02
RMM:   2    -0.231508749294E+04   -0.40921E-04   -0.44631E-04  4695   0.157E-02    0.140E-02
RMM:   3    -0.231508749358E+04   -0.63627E-06   -0.40928E-05  2891   0.779E-03
 192 F= -.23359538E+04 E0= -.23359538E+04  d E =-.302429E-04  mag=     6.0000
       N       E                     dE             d eps       ncg     rms          rms(c)
DAV:   1    -0.231508745971E+04    0.33236E-04   -0.34112E-03  4528   0.526E-02    0.202E-02
RMM:   2    -0.231508747552E+04   -0.15816E-04   -0.17622E-04  3457   0.994E-03    0.131E-02
RMM:   3    -0.231508747673E+04   -0.12085E-05   -0.21939E-05  2862   0.567E-03
 193 F= -.23359538E+04 E0= -.23359538E+04  d E =-.333318E-04  mag=     6.0000
       N       E                     dE             d eps       ncg     rms          rms(c)
DAV:   1    -0.231508740908E+04    0.66443E-04   -0.10462E-02  4472   0.907E-02    0.311E-02
RMM:   2    -0.231508746009E+04   -0.51012E-04   -0.54872E-04  4931   0.167E-02    0.188E-02
RMM:   3    -0.231508746318E+04   -0.30879E-05   -0.55528E-05  2884   0.771E-03
 194 F= -.23359539E+04 E0= -.23359539E+04  d E =-.430341E-04  mag=     6.0000
       N       E                     dE             d eps       ncg     rms          rms(c)
DAV:   1    -0.231508742891E+04    0.31182E-04   -0.18215E-03  4768   0.382E-02    0.166E-02
RMM:   2    -0.231508743688E+04   -0.79677E-05   -0.98919E-05  3120   0.748E-03
 195 F= -.23359538E+04 E0= -.23359538E+04  d E =-.405369E-04  mag=     6.0000
       N       E                     dE             d eps       ncg     rms          rms(c)
DAV:   1    -0.231508737800E+04    0.50909E-04   -0.94057E-03  4472   0.887E-02    0.339E-02
RMM:   2    -0.231508742905E+04   -0.51046E-04   -0.52221E-04  4813   0.184E-02    0.294E-02
RMM:   3    -0.231508742948E+04   -0.42841E-06   -0.59900E-05  2898   0.825E-03
 196 F= -.23359539E+04 E0= -.23359539E+04  d E =-.456811E-04  mag=     6.0000
       N       E                     dE             d eps       ncg     rms          rms(c)
DAV:   1    -0.231508741206E+04    0.16987E-04   -0.30999E-04  5200   0.171E-02    0.108E-02
RMM:   2    -0.231508741310E+04   -0.10419E-05   -0.20126E-05  2612   0.384E-03
 197 F= -.23359539E+04 E0= -.23359539E+04  d E =-.391935E-04  mag=     6.0000
       N       E                     dE             d eps       ncg     rms          rms(c)
DAV:   1    -0.231508736921E+04    0.42851E-04   -0.67747E-03  4472   0.746E-02    0.286E-02
RMM:   2    -0.231508740872E+04   -0.39504E-04   -0.39531E-04  4446   0.151E-02    0.267E-02
RMM:   3    -0.231508740815E+04    0.56253E-06   -0.44194E-05  2880   0.737E-03
 198 F= -.23359539E+04 E0= -.23359539E+04  d E =-.373024E-04  mag=     6.0000
       N       E                     dE             d eps       ncg     rms          rms(c)
DAV:   1    -0.231508739508E+04    0.13640E-04   -0.24739E-04  5176   0.149E-02    0.928E-03
RMM:   2    -0.231508739593E+04   -0.85655E-06   -0.16683E-05  2554   0.339E-03
 199 F= -.23359539E+04 E0= -.23359539E+04  d E =-.333437E-04  mag=     6.0000
       N       E                     dE             d eps       ncg     rms          rms(c)
DAV:   1    -0.231508734976E+04    0.45317E-04   -0.55641E-03  4472   0.682E-02    0.260E-02
RMM:   2    -0.231508738032E+04   -0.30559E-04   -0.32051E-04  4162   0.138E-02    0.197E-02
RMM:   3    -0.231508738212E+04   -0.17991E-05   -0.36484E-05  2870   0.720E-03
 200 F= -.23359540E+04 E0= -.23359540E+04  d E =-.325321E-04  mag=     6.0000
       N       E                     dE             d eps       ncg     rms          rms(c)
DAV:   1    -0.231508736690E+04    0.13417E-04   -0.26150E-04  5160   0.155E-02    0.915E-03
RMM:   2    -0.231508736811E+04   -0.12089E-05   -0.17772E-05  2541   0.348E-03
 201 F= -.23359539E+04 E0= -.23359539E+04  d E =-.287852E-04  mag=     6.0000
