       N       E                     dE             d eps       ncg     rms          rms(c)
DAV:   1     0.122416495018E+05    0.12242E+05   -0.84068E+05  4640   0.141E+03
DAV:   2    -0.129868684274E+04   -0.13540E+05   -0.13031E+05  5120   0.320E+02
DAV:   3    -0.250524727309E+04   -0.12066E+04   -0.11969E+04  5520   0.102E+02
DAV:   4    -0.253062015900E+04   -0.25373E+02   -0.25245E+02  5680   0.177E+01
DAV:   5    -0.253131186021E+04   -0.69170E+00   -0.69061E+00  5840   0.255E+00    0.171E+02
RMM:   6    -0.148061799933E+04    0.10507E+04   -0.19256E+03  4504   0.379E+01    0.723E+01
RMM:   7    -0.165335790024E+04   -0.17274E+03   -0.26763E+02  5028   0.132E+01    0.471E+01
RMM:   8    -0.171062227741E+04   -0.57264E+02   -0.28124E+01  5218   0.638E+00    0.332E+01
RMM:   9    -0.189092671550E+04   -0.18030E+03   -0.94031E+01  4870   0.935E+00    0.317E+01
RMM:  10    -0.194740503031E+04   -0.56478E+02   -0.25135E+01  4998   0.476E+00    0.217E+01
RMM:  11    -0.205604147543E+04   -0.10864E+03   -0.45606E+01  4776   0.525E+00    0.144E+01
RMM:  12    -0.215597591792E+04   -0.99934E+02   -0.51243E+01  4624   0.543E+00    0.109E+01
RMM:  13    -0.229121429043E+04   -0.13524E+03   -0.13507E+02  4484   0.763E+00    0.672E+00
RMM:  14    -0.231626332685E+04   -0.25049E+02   -0.28527E+01  4546   0.455E+00    0.720E+00
RMM:  15    -0.231801371037E+04   -0.17504E+01   -0.53014E+00  5420   0.154E+00    0.661E+00
RMM:  16    -0.231924559363E+04   -0.12319E+01   -0.84396E-01  4843   0.669E-01    0.528E+00
RMM:  17    -0.232198245271E+04   -0.27369E+01   -0.18867E+00  4583   0.998E-01    0.290E+00
RMM:  18    -0.232308017468E+04   -0.10977E+01   -0.65103E-01  4805   0.711E-01    0.145E+00
RMM:  19    -0.232340112768E+04   -0.32095E+00   -0.26180E-01  4818   0.385E-01    0.158E+00
RMM:  20    -0.232348488418E+04   -0.83757E-01   -0.56592E-02  4929   0.214E-01    0.147E+00
RMM:  21    -0.232353740149E+04   -0.52517E-01   -0.40972E-02  4578   0.119E-01    0.130E+00
RMM:  22    -0.232359962505E+04   -0.62224E-01   -0.57226E-02  4589   0.166E-01    0.828E-01
RMM:  23    -0.232362951202E+04   -0.29887E-01   -0.47543E-02  4732   0.169E-01    0.398E-01
RMM:  24    -0.232364499385E+04   -0.15482E-01   -0.23788E-02  5218   0.129E-01    0.265E-01
RMM:  25    -0.232366200995E+04   -0.17016E-01   -0.69847E-03  4613   0.699E-02    0.165E-01
RMM:  26    -0.232367285286E+04   -0.10843E-01   -0.29475E-03  4577   0.434E-02    0.101E-01
RMM:  27    -0.232368042125E+04   -0.75684E-02   -0.19111E-03  4641   0.371E-02    0.741E-02
RMM:  28    -0.232368617237E+04   -0.57511E-02   -0.17374E-03  4546   0.280E-02    0.607E-02
RMM:  29    -0.232368890906E+04   -0.27367E-02   -0.10092E-03  4334   0.252E-02    0.239E-02
RMM:  30    -0.232368996547E+04   -0.10564E-02   -0.48338E-04  4289   0.158E-02    0.185E-02
RMM:  31    -0.232369020193E+04   -0.23646E-03   -0.79759E-05  3725   0.982E-03    0.159E-02
RMM:  32    -0.232369032257E+04   -0.12065E-03   -0.37064E-05  3369   0.506E-03    0.860E-03
RMM:  33    -0.232369039330E+04   -0.70723E-04   -0.13597E-05  2983   0.431E-03    0.431E-03
RMM:  34    -0.232369044188E+04   -0.48582E-04   -0.10531E-05  2969   0.281E-03    0.214E-03
RMM:  35    -0.232369045817E+04   -0.16292E-04   -0.53649E-06  2827   0.272E-03    0.118E-03
RMM:  36    -0.232369046287E+04   -0.47003E-05   -0.27320E-06  2502   0.189E-03
   1 F= -.23442387E+04 E0= -.23442387E+04  d E =-.573500E-06  mag=     4.0000
       N       E                     dE             d eps       ncg     rms          rms(c)
DAV:   1    -0.232366728994E+04    0.23168E-01   -0.19631E+00  4480   0.687E-01    0.355E-01
RMM:   2    -0.232366714780E+04    0.14214E-03   -0.16094E-02  4733   0.542E-02    0.323E-01
RMM:   3    -0.232366694080E+04    0.20701E-03   -0.23788E-03  4721   0.250E-02    0.329E-01
RMM:   4    -0.232366623129E+04    0.70951E-03   -0.11423E-03  4792   0.144E-02    0.156E-01
RMM:   5    -0.232366606963E+04    0.16166E-03   -0.63054E-04  4212   0.125E-02    0.682E-02
RMM:   6    -0.232366606898E+04    0.65599E-06   -0.12148E-04  3141   0.775E-03    0.510E-02
RMM:   7    -0.232366610081E+04   -0.31839E-04   -0.12134E-04  3260   0.578E-03    0.398E-02
RMM:   8    -0.232366610715E+04   -0.63360E-05   -0.51919E-05  2984   0.516E-03
   2 F= -.23442159E+04 E0= -.23442159E+04  d E =-.531019E-06  mag=     4.0000
       N       E                     dE             d eps       ncg     rms          rms(c)
DAV:   1    -0.232369249807E+04   -0.26397E-01   -0.77593E+00  4480   0.124E+00    0.713E-01
RMM:   2    -0.232369214597E+04    0.35210E-03   -0.66767E-02  4836   0.110E-01    0.625E-01
RMM:   3    -0.232369104925E+04    0.10967E-02   -0.95177E-03  5178   0.531E-02    0.607E-01
RMM:   4    -0.232368857747E+04    0.24718E-02   -0.45629E-03  5562   0.286E-02    0.302E-01
RMM:   5    -0.232368797026E+04    0.60721E-03   -0.23931E-03  4812   0.235E-02    0.130E-01
RMM:   6    -0.232368796855E+04    0.17169E-05   -0.43218E-04  3847   0.130E-02    0.942E-02
RMM:   7    -0.232368810624E+04   -0.13769E-03   -0.43718E-04  3961   0.100E-02    0.728E-02
RMM:   8    -0.232368814146E+04   -0.35219E-04   -0.16552E-04  3163   0.828E-03    0.450E-02
RMM:   9    -0.232368817070E+04   -0.29244E-04   -0.14206E-04  3133   0.610E-03    0.265E-02
RMM:  10    -0.232368818927E+04   -0.18568E-04   -0.87633E-05  3028   0.568E-03    0.146E-02
RMM:  11    -0.232368819594E+04   -0.66693E-05   -0.62583E-05  2980   0.434E-03
   3 F= -.23442348E+04 E0= -.23442348E+04  d E =-.575090E-06  mag=     4.0000
       N       E                     dE             d eps       ncg     rms          rms(c)
DAV:   1    -0.232369665240E+04   -0.84631E-02   -0.35670E+00  4640   0.892E-01    0.464E-01
RMM:   2    -0.232369752665E+04   -0.87426E-03   -0.17836E-02  4391   0.636E-02    0.347E-01
RMM:   3    -0.232369823621E+04   -0.70955E-03   -0.32567E-03  5074   0.266E-02    0.459E-01
RMM:   4    -0.232369719285E+04    0.10434E-02   -0.19084E-03  4944   0.186E-02    0.195E-01
RMM:   5    -0.232369726646E+04   -0.73611E-04   -0.66867E-04  4105   0.124E-02    0.139E-01
RMM:   6    -0.232369740116E+04   -0.13470E-03   -0.47100E-04  3467   0.100E-02    0.866E-02
RMM:   7    -0.232369751393E+04   -0.11278E-03   -0.42770E-04  3489   0.989E-03    0.387E-02
RMM:   8    -0.232369755148E+04   -0.37543E-04   -0.18501E-04  3081   0.708E-03    0.208E-02
RMM:   9    -0.232369756546E+04   -0.13982E-04   -0.80447E-05  2979   0.461E-03    0.131E-02
RMM:  10    -0.232369757242E+04   -0.69649E-05   -0.45947E-05  2942   0.388E-03
   4 F= -.23442455E+04 E0= -.23442455E+04  d E =-.459983E-06  mag=     4.0000
       N       E                     dE             d eps       ncg     rms          rms(c)
DAV:   1    -0.232366888918E+04    0.28676E-01   -0.72232E+00  4480   0.129E+00    0.631E-01
RMM:   2    -0.232366930654E+04   -0.41736E-03   -0.26276E-02  4511   0.781E-02    0.391E-01
RMM:   3    -0.232366928710E+04    0.19441E-04   -0.40259E-03  5487   0.335E-02    0.331E-01
RMM:   4    -0.232367015012E+04   -0.86302E-03   -0.29600E-03  5310   0.218E-02    0.420E-01
RMM:   5    -0.232366908808E+04    0.10620E-02   -0.91478E-04  4532   0.140E-02    0.137E-01
RMM:   6    -0.232366923214E+04   -0.14406E-03   -0.55159E-04  3554   0.963E-03    0.884E-02
RMM:   7    -0.232366935616E+04   -0.12401E-03   -0.38385E-04  3429   0.974E-03    0.454E-02
RMM:   8    -0.232366940582E+04   -0.49669E-04   -0.20201E-04  3077   0.699E-03    0.273E-02
RMM:   9    -0.232366943161E+04   -0.25786E-04   -0.10728E-04  3015   0.542E-03    0.169E-02
RMM:  10    -0.232366944446E+04   -0.12851E-04   -0.72230E-05  2964   0.471E-03    0.102E-02
RMM:  11    -0.232366944751E+04   -0.30516E-05   -0.46632E-05  2924   0.383E-03
   5 F= -.23442180E+04 E0= -.23442180E+04  d E =-.661760E-06  mag=     4.0000
       N       E                     dE             d eps       ncg     rms          rms(c)
DAV:   1    -0.232357050989E+04    0.98935E-01   -0.36732E+00  4480   0.894E-01    0.511E-01
RMM:   2    -0.232357071323E+04   -0.20334E-03   -0.20758E-02  4383   0.629E-02    0.336E-01
RMM:   3    -0.232357034840E+04    0.36483E-03   -0.27392E-03  4855   0.284E-02    0.223E-01
RMM:   4    -0.232357060248E+04   -0.25408E-03   -0.13778E-03  4351   0.165E-02    0.170E-01
RMM:   5    -0.232357120373E+04   -0.60125E-03   -0.77560E-04  3845   0.125E-02    0.286E-01
RMM:   6    -0.232357090644E+04    0.29729E-03   -0.60089E-04  3652   0.104E-02    0.990E-02
RMM:   7    -0.232357109569E+04   -0.18925E-03   -0.71166E-04  3710   0.112E-02    0.482E-02
RMM:   8    -0.232357114294E+04   -0.47250E-04   -0.23327E-04  3117   0.793E-03    0.293E-02
RMM:   9    -0.232357116398E+04   -0.21039E-04   -0.12948E-04  3008   0.512E-03    0.161E-02
RMM:  10    -0.232357117227E+04   -0.82901E-05   -0.54097E-05  2938   0.410E-03
   6 F= -.23441192E+04 E0= -.23441192E+04  d E =-.126491E-05  mag=     4.0000
       N       E                     dE             d eps       ncg     rms          rms(c)
DAV:   1    -0.232375930240E+04   -0.18814E+00   -0.79780E+00  4480   0.117E+00    0.837E-01
RMM:   2    -0.232375929300E+04    0.94025E-05   -0.77301E-02  4528   0.141E-01    0.518E-01
RMM:   3    -0.232375587356E+04    0.34194E-02   -0.93899E-03  5721   0.640E-02    0.350E-01
RMM:   4    -0.232375708330E+04   -0.12097E-02   -0.59567E-03  5598   0.349E-02    0.447E-01
RMM:   5    -0.232375578386E+04    0.12994E-02   -0.16813E-03  5018   0.203E-02    0.204E-01
RMM:   6    -0.232375590778E+04   -0.12392E-03   -0.71323E-04  3977   0.125E-02    0.116E-01
RMM:   7    -0.232375606188E+04   -0.15410E-03   -0.47866E-04  3647   0.118E-02    0.639E-02
RMM:   8    -0.232375613984E+04   -0.77955E-04   -0.35765E-04  3286   0.892E-03    0.377E-02
RMM:   9    -0.232375618242E+04   -0.42588E-04   -0.22819E-04  3194   0.754E-03    0.213E-02
RMM:  10    -0.232375619490E+04   -0.12472E-04   -0.12128E-04  3041   0.627E-03    0.111E-02
RMM:  11    -0.232375619648E+04   -0.15825E-05   -0.33175E-05  2949   0.407E-03
   7 F= -.23443046E+04 E0= -.23443046E+04  d E =-.189158E-06  mag=     4.0000
       N       E                     dE             d eps       ncg     rms          rms(c)
DAV:   1    -0.232368265809E+04    0.73537E-01   -0.70156E+00  4480   0.139E+00    0.513E-01
RMM:   2    -0.232368407681E+04   -0.14187E-02   -0.40645E-02  4587   0.983E-02    0.417E-01
RMM:   3    -0.232368438562E+04   -0.30881E-03   -0.56155E-03  5694   0.367E-02    0.593E-01
RMM:   4    -0.232368188187E+04    0.25037E-02   -0.28418E-03  4791   0.243E-02    0.124E-01
RMM:   5    -0.232368184108E+04    0.40798E-04   -0.66457E-04  3846   0.135E-02    0.763E-02
RMM:   6    -0.232368189042E+04   -0.49340E-04   -0.13870E-04  3181   0.777E-03    0.764E-02
RMM:   7    -0.232368191325E+04   -0.22838E-04   -0.11917E-04  3156   0.638E-03    0.381E-02
RMM:   8    -0.232368193549E+04   -0.22240E-04   -0.72777E-05  3010   0.540E-03    0.227E-02
RMM:   9    -0.232368194945E+04   -0.13962E-04   -0.58832E-05  2964   0.439E-03    0.142E-02
RMM:  10    -0.232368195454E+04   -0.50874E-05   -0.37518E-05  2934   0.392E-03
   8 F= -.23442308E+04 E0= -.23442308E+04  d E =-.247334E-06  mag=     4.0000
       N       E                     dE             d eps       ncg     rms          rms(c)
DAV:   1    -0.232368926818E+04   -0.73187E-02   -0.20264E+01  4480   0.218E+00    0.557E-01
RMM:   2    -0.232369469414E+04   -0.54260E-02   -0.81671E-02  4623   0.131E-01    0.635E-01
RMM:   3    -0.232369156136E+04    0.31328E-02   -0.82947E-03  5966   0.486E-02    0.488E-01
RMM:   4    -0.232368956316E+04    0.19982E-02   -0.29804E-03  4294   0.260E-02    0.130E-01
RMM:   5    -0.232368943243E+04    0.13073E-03   -0.83857E-04  4270   0.185E-02    0.533E-02
RMM:   6    -0.232368943584E+04   -0.34050E-05   -0.11610E-04  3308   0.667E-03    0.332E-02
RMM:   7    -0.232368943729E+04   -0.14554E-05   -0.29648E-05  3057   0.495E-03
   9 F= -.23442371E+04 E0= -.23442371E+04  d E =-.131415E-05  mag=     4.0000
       N       E                     dE             d eps       ncg     rms          rms(c)
DAV:   1    -0.232368227844E+04    0.71574E-02   -0.10007E+01  4480   0.153E+00    0.387E-01
RMM:   2    -0.232368414444E+04   -0.18660E-02   -0.42115E-02  4369   0.982E-02    0.225E-01
RMM:   3    -0.232368445112E+04   -0.30668E-03   -0.37069E-03  5378   0.333E-02    0.423E-01
RMM:   4    -0.232368310191E+04    0.13492E-02   -0.15777E-03  4432   0.176E-02    0.936E-02
RMM:   5    -0.232368310236E+04   -0.45137E-06   -0.28513E-04  3422   0.860E-03    0.563E-02
RMM:   6    -0.232368311189E+04   -0.95239E-05   -0.47399E-05  3015   0.501E-03
  10 F= -.23442309E+04 E0= -.23442309E+04  d E =-.108185E-05  mag=     4.0000
       N       E                     dE             d eps       ncg     rms          rms(c)
DAV:   1    -0.232368948996E+04   -0.63876E-02   -0.19993E+01  4480   0.213E+00    0.579E-01
RMM:   2    -0.232369393825E+04   -0.44483E-02   -0.83269E-02  4442   0.152E-01    0.445E-01
RMM:   3    -0.232369507509E+04   -0.11368E-02   -0.93138E-03  5656   0.562E-02    0.680E-01
RMM:   4    -0.232369143693E+04    0.36382E-02   -0.33741E-03  4744   0.280E-02    0.118E-01
RMM:   5    -0.232369143596E+04    0.97087E-06   -0.74130E-04  3707   0.168E-02    0.666E-02
RMM:   6    -0.232369146026E+04   -0.24298E-04   -0.12937E-04  3267   0.736E-03    0.532E-02
RMM:   7    -0.232369147451E+04   -0.14246E-04   -0.60753E-05  3053   0.556E-03    0.262E-02
RMM:   8    -0.232369148508E+04   -0.10569E-04   -0.34708E-05  2970   0.409E-03    0.173E-02
RMM:   9    -0.232369149000E+04   -0.49235E-05   -0.19255E-05  2907   0.308E-03
  11 F= -.23442402E+04 E0= -.23442402E+04  d E =-.302214E-06  mag=     4.0000
       N       E                     dE             d eps       ncg     rms          rms(c)
DAV:   1    -0.232369175610E+04   -0.27102E-03   -0.10030E+01  4480   0.156E+00    0.474E-01
RMM:   2    -0.232369356333E+04   -0.18072E-02   -0.49434E-02  4430   0.118E-01    0.301E-01
RMM:   3    -0.232369449700E+04   -0.93368E-03   -0.55638E-03  5150   0.484E-02    0.540E-01
RMM:   4    -0.232369236589E+04    0.21311E-02   -0.22177E-03  4725   0.218E-02    0.128E-01
RMM:   5    -0.232369237007E+04   -0.41857E-05   -0.64335E-04  3914   0.128E-02    0.854E-02
RMM:   6    -0.232369243000E+04   -0.59927E-04   -0.16779E-04  3196   0.828E-03    0.730E-02
RMM:   7    -0.232369246636E+04   -0.36355E-04   -0.15468E-04  3175   0.657E-03    0.354E-02
RMM:   8    -0.232369249322E+04   -0.26861E-04   -0.94663E-05  3002   0.537E-03    0.241E-02
RMM:   9    -0.232369250150E+04   -0.82814E-05   -0.50704E-05  2947   0.406E-03
  12 F= -.23442415E+04 E0= -.23442415E+04  d E =-.227839E-06  mag=     4.0000
       N       E                     dE             d eps       ncg     rms          rms(c)
DAV:   1    -0.232365503726E+04    0.37456E-01   -0.20339E+01  4480   0.222E+00    0.101E+00
RMM:   2    -0.232364994983E+04    0.50874E-02   -0.13900E-01  4667   0.169E-01    0.465E-01
RMM:   3    -0.232364790290E+04    0.20469E-02   -0.12801E-02  4817   0.799E-02    0.565E-01
RMM:   4    -0.232364671734E+04    0.11856E-02   -0.63463E-03  5617   0.330E-02    0.380E-01
RMM:   5    -0.232364570857E+04    0.10088E-02   -0.16228E-03  4945   0.194E-02    0.126E-01
RMM:   6    -0.232364577874E+04   -0.70170E-04   -0.41869E-04  3576   0.111E-02    0.946E-02
RMM:   7    -0.232364583828E+04   -0.59539E-04   -0.18349E-04  3277   0.785E-03    0.676E-02
RMM:   8    -0.232364591251E+04   -0.74235E-04   -0.19019E-04  3212   0.757E-03    0.557E-02
RMM:   9    -0.232364594448E+04   -0.31970E-04   -0.16758E-04  3091   0.703E-03    0.282E-02
RMM:  10    -0.232364595564E+04   -0.11154E-04   -0.11422E-04  3008   0.561E-03    0.141E-02
RMM:  11    -0.232364595659E+04   -0.95266E-06   -0.25027E-05  2947   0.361E-03
  13 F= -.23441934E+04 E0= -.23441934E+04  d E =-.123153E-05  mag=     4.0000
       N       E                     dE             d eps       ncg     rms          rms(c)
DAV:   1    -0.232363676467E+04    0.91910E-02   -0.10087E+01  4480   0.142E+00    0.676E-01
RMM:   2    -0.232363796190E+04   -0.11972E-02   -0.87255E-02  4442   0.132E-01    0.323E-01
RMM:   3    -0.232363626652E+04    0.16954E-02   -0.64449E-03  4731   0.519E-02    0.243E-01
RMM:   4    -0.232363648647E+04   -0.21995E-03   -0.23004E-03  4990   0.209E-02    0.302E-01
RMM:   5    -0.232363588232E+04    0.60415E-03   -0.10446E-03  4558   0.160E-02    0.914E-02
RMM:   6    -0.232363584698E+04    0.35344E-04   -0.15696E-04  3386   0.699E-03    0.519E-02
RMM:   7    -0.232363586061E+04   -0.13639E-04   -0.57689E-05  3076   0.511E-03    0.387E-02
RMM:   8    -0.232363588164E+04   -0.21027E-04   -0.52885E-05  3014   0.474E-03    0.331E-02
RMM:   9    -0.232363589204E+04   -0.10400E-04   -0.51885E-05  2988   0.458E-03    0.168E-02
RMM:  10    -0.232363589849E+04   -0.64521E-05   -0.50312E-05  2969   0.404E-03
  14 F= -.23441851E+04 E0= -.23441851E+04  d E =-.635999E-06  mag=     4.0000
       N       E                     dE             d eps       ncg     rms          rms(c)
DAV:   1    -0.232372105377E+04   -0.85162E-01   -0.20429E+01  4480   0.178E+00    0.761E-01
RMM:   2    -0.232372459546E+04   -0.35417E-02   -0.11418E-01  4444   0.134E-01    0.439E-01
RMM:   3    -0.232372735068E+04   -0.27552E-02   -0.13992E-02  6039   0.498E-02    0.921E-01
RMM:   4    -0.232372057210E+04    0.67786E-02   -0.49419E-03  5478   0.303E-02    0.112E-01
RMM:   5    -0.232372041800E+04    0.15410E-03   -0.11443E-03  4133   0.133E-02    0.602E-02
RMM:   6    -0.232372039052E+04    0.27476E-04   -0.99293E-05  3230   0.857E-03    0.360E-02
RMM:   7    -0.232372037525E+04    0.15269E-04   -0.68868E-05  3161   0.518E-03    0.176E-02
RMM:   8    -0.232372037171E+04    0.35381E-05   -0.18125E-05  2980   0.456E-03
  15 F= -.23442678E+04 E0= -.23442678E+04  d E =-.546132E-06  mag=     4.0000
       N       E                     dE             d eps       ncg     rms          rms(c)
DAV:   1    -0.232368972943E+04    0.30646E-01   -0.10085E+01  4480   0.128E+00    0.429E-01
RMM:   2    -0.232369161352E+04   -0.18841E-02   -0.47383E-02  4344   0.100E-01    0.225E-01
RMM:   3    -0.232369110979E+04    0.50372E-03   -0.34745E-03  5476   0.279E-02    0.313E-01
RMM:   4    -0.232369042075E+04    0.68905E-03   -0.10104E-03  4041   0.150E-02    0.980E-02
RMM:   5    -0.232369036119E+04    0.59558E-04   -0.21896E-04  3298   0.809E-03    0.326E-02
RMM:   6    -0.232369035898E+04    0.22028E-05   -0.38578E-05  3044   0.514E-03
  16 F= -.23442382E+04 E0= -.23442382E+04  d E =-.662194E-06  mag=     4.0000
       N       E                     dE             d eps       ncg     rms          rms(c)
DAV:   1    -0.232368212531E+04    0.82359E-02   -0.20297E+01  4480   0.184E+00    0.515E-01
RMM:   2    -0.232368514268E+04   -0.30174E-02   -0.69171E-02  4376   0.114E-01    0.281E-01
RMM:   3    -0.232368537345E+04   -0.23077E-03   -0.55611E-03  5386   0.338E-02    0.494E-01
RMM:   4    -0.232368349200E+04    0.18815E-02   -0.20157E-03  4789   0.213E-02    0.944E-02
RMM:   5    -0.232368346794E+04    0.24060E-04   -0.44266E-04  3539   0.908E-03    0.385E-02
RMM:   6    -0.232368346646E+04    0.14763E-05   -0.45221E-05  3006   0.608E-03
  17 F= -.23442321E+04 E0= -.23442321E+04  d E =-.536066E-06  mag=     4.0000
       N       E                     dE             d eps       ncg     rms          rms(c)
DAV:   1    -0.232372516957E+04   -0.41702E-01   -0.10096E+01  4480   0.128E+00    0.455E-01
RMM:   2    -0.232372737328E+04   -0.22037E-02   -0.61444E-02  4363   0.112E-01    0.261E-01
RMM:   3    -0.232372600110E+04    0.13722E-02   -0.49866E-03  5427   0.349E-02    0.109E-01
RMM:   4    -0.232372624548E+04   -0.24438E-03   -0.10589E-03  4499   0.164E-02    0.219E-01
RMM:   5    -0.232372589753E+04    0.34795E-03   -0.32420E-04  3382   0.862E-03    0.377E-02
RMM:   6    -0.232372589272E+04    0.48179E-05   -0.78334E-05  3123   0.447E-03
  18 F= -.23442750E+04 E0= -.23442750E+04  d E =-.264316E-06  mag=     4.0000
       N       E                     dE             d eps       ncg     rms          rms(c)
DAV:   1    -0.232363663216E+04    0.89265E-01   -0.20314E+01  4480   0.187E+00    0.780E-01
RMM:   2    -0.232363499833E+04    0.16338E-02   -0.10752E-01  4444   0.142E-01    0.468E-01
RMM:   3    -0.232363583316E+04   -0.83483E-03   -0.15891E-02  5823   0.578E-02    0.724E-01
RMM:   4    -0.232363179509E+04    0.40381E-02   -0.61866E-03  5795   0.338E-02    0.249E-01
RMM:   5    -0.232363148377E+04    0.31132E-03   -0.90456E-04  4321   0.153E-02    0.717E-02
RMM:   6    -0.232363145201E+04    0.31758E-04   -0.15048E-04  3307   0.754E-03    0.306E-02
RMM:   7    -0.232363145459E+04   -0.25837E-05   -0.48195E-05  3081   0.477E-03
  19 F= -.23441791E+04 E0= -.23441791E+04  d E =-.125184E-05  mag=     4.0000
       N       E                     dE             d eps       ncg     rms          rms(c)
DAV:   1    -0.232365979639E+04   -0.28344E-01   -0.10232E+01  4480   0.128E+00    0.537E-01
RMM:   2    -0.232366545935E+04   -0.56630E-02   -0.10035E-01  4366   0.116E-01    0.277E-01
RMM:   3    -0.232366396791E+04    0.14914E-02   -0.44361E-03  5175   0.320E-02    0.162E-01
RMM:   4    -0.232366460147E+04   -0.63356E-03   -0.18481E-03  5166   0.184E-02    0.336E-01
RMM:   5    -0.232366377998E+04    0.82149E-03   -0.71424E-04  3854   0.122E-02    0.435E-02
RMM:   6    -0.232366377709E+04    0.28835E-05   -0.13337E-04  3124   0.509E-03    0.202E-02
RMM:   7    -0.232366377594E+04    0.11534E-05   -0.20561E-05  2988   0.341E-03
  20 F= -.23442113E+04 E0= -.23442113E+04  d E =-.251079E-06  mag=     4.0000
       N       E                     dE             d eps       ncg     rms          rms(c)
DAV:   1    -0.232370477985E+04   -0.41003E-01   -0.20637E+01  4480   0.159E+00    0.550E-01
RMM:   2    -0.232370831224E+04   -0.35324E-02   -0.10119E-01  4336   0.999E-02    0.312E-01
RMM:   3    -0.232370772003E+04    0.59221E-03   -0.74124E-03  5639   0.325E-02    0.468E-01
RMM:   4    -0.232370621338E+04    0.15067E-02   -0.30214E-03  4974   0.215E-02    0.161E-01
RMM:   5    -0.232370602915E+04    0.18423E-03   -0.63901E-04  4125   0.105E-02    0.450E-02
RMM:   6    -0.232370603285E+04   -0.36973E-05   -0.75286E-05  3052   0.658E-03
  21 F= -.23442551E+04 E0= -.23442551E+04  d E =-.134437E-05  mag=     4.0000
       N       E                     dE             d eps       ncg     rms          rms(c)
DAV:   1    -0.232367112089E+04    0.34908E-01   -0.10319E+01  4480   0.111E+00    0.485E-01
RMM:   2    -0.232367280255E+04   -0.16817E-02   -0.58434E-02  4187   0.722E-02    0.223E-01
RMM:   3    -0.232367175576E+04    0.10468E-02   -0.24397E-03  4749   0.206E-02    0.135E-01
RMM:   4    -0.232367208292E+04   -0.32716E-03   -0.13576E-03  4307   0.152E-02    0.243E-01
RMM:   5    -0.232367162570E+04    0.45722E-03   -0.51611E-04  4016   0.102E-02    0.437E-02
RMM:   6    -0.232367162183E+04    0.38787E-05   -0.52850E-05  2980   0.473E-03
  22 F= -.23442203E+04 E0= -.23442203E+04  d E =-.460222E-06  mag=     4.0000
       N       E                     dE             d eps       ncg     rms          rms(c)
DAV:   1    -0.232370239829E+04   -0.30773E-01   -0.20872E+01  4480   0.158E+00    0.582E-01
RMM:   2    -0.232370406693E+04   -0.16686E-02   -0.80567E-02  4246   0.869E-02    0.291E-01
RMM:   3    -0.232370272055E+04    0.13464E-02   -0.42837E-03  4887   0.274E-02    0.261E-01
RMM:   4    -0.232370274498E+04   -0.24431E-04   -0.18638E-03  4603   0.168E-02    0.267E-01
RMM:   5    -0.232370220048E+04    0.54450E-03   -0.83685E-04  4155   0.128E-02    0.489E-02
RMM:   6    -0.232370219445E+04    0.60302E-05   -0.87871E-05  3082   0.709E-03
  23 F= -.23442501E+04 E0= -.23442501E+04  d E =-.664563E-06  mag=     4.0000
       N       E                     dE             d eps       ncg     rms          rms(c)
DAV:   1    -0.232364745448E+04    0.54746E-01   -0.10094E+01  4480   0.122E+00    0.655E-01
RMM:   2    -0.232364603118E+04    0.14233E-02   -0.72513E-02  4440   0.872E-02    0.392E-01
RMM:   3    -0.232364630749E+04   -0.27631E-03   -0.79138E-03  5361   0.392E-02    0.628E-01
RMM:   4    -0.232364331864E+04    0.29888E-02   -0.29859E-03  5016   0.221E-02    0.160E-01
RMM:   5    -0.232364318310E+04    0.13554E-03   -0.14099E-03  3818   0.137E-02    0.474E-02
RMM:   6    -0.232364316358E+04    0.19519E-04   -0.13798E-04  3125   0.928E-03    0.233E-02
RMM:   7    -0.232364316667E+04   -0.30874E-05   -0.83034E-05  3163   0.397E-03
  24 F= -.23441912E+04 E0= -.23441912E+04  d E =-.108190E-05  mag=     4.0000
       N       E                     dE             d eps       ncg     rms          rms(c)
DAV:   1    -0.232371987891E+04   -0.76715E-01   -0.20264E+01  4480   0.183E+00    0.920E-01
RMM:   2    -0.232371323448E+04    0.66444E-02   -0.13428E-01  4577   0.121E-01    0.559E-01
RMM:   3    -0.232371508115E+04   -0.18467E-02   -0.17875E-02  5800   0.530E-02    0.946E-01
RMM:   4    -0.232370791165E+04    0.71695E-02   -0.70130E-03  5618   0.322E-02    0.199E-01
RMM:   5    -0.232370764776E+04    0.26389E-03   -0.26091E-03  4105   0.179E-02    0.606E-02
RMM:   6    -0.232370760108E+04    0.46685E-04   -0.25483E-04  3262   0.125E-02    0.296E-02
RMM:   7    -0.232370760083E+04    0.24424E-06   -0.12939E-04  3279   0.503E-03    0.192E-02
RMM:   8    -0.232370760138E+04   -0.54963E-06   -0.21130E-05  2981   0.432E-03
  25 F= -.23442562E+04 E0= -.23442562E+04  d E =-.305565E-06  mag=     4.0000
       N       E                     dE             d eps       ncg     rms          rms(c)
DAV:   1    -0.232371324977E+04   -0.56489E-02   -0.49589E+00  4480   0.881E-01    0.444E-01
RMM:   2    -0.232371428510E+04   -0.10353E-02   -0.41662E-02  4212   0.658E-02    0.282E-01
RMM:   3    -0.232371448456E+04   -0.19946E-03   -0.37222E-03  5276   0.244E-02    0.450E-01
RMM:   4    -0.232371299739E+04    0.14872E-02   -0.18556E-03  4684   0.171E-02    0.123E-01
RMM:   5    -0.232371293614E+04    0.61246E-04   -0.52368E-04  3649   0.971E-03    0.292E-02
RMM:   6    -0.232371292893E+04    0.72147E-05   -0.55637E-05  3032   0.642E-03
  26 F= -.23442608E+04 E0= -.23442608E+04  d E =-.559251E-06  mag=     4.0000
       N       E                     dE             d eps       ncg     rms          rms(c)
DAV:   1    -0.232366106936E+04    0.51867E-01   -0.10485E+00  4640   0.421E-01    0.366E-01
RMM:   2    -0.232366139579E+04   -0.32642E-03   -0.15018E-02  4185   0.409E-02    0.214E-01
RMM:   3    -0.232366172913E+04   -0.33335E-03   -0.14477E-03  4107   0.184E-02    0.284E-01
RMM:   4    -0.232366134394E+04    0.38519E-03   -0.73487E-04  3896   0.116E-02    0.133E-01
RMM:   5    -0.232366136222E+04   -0.18279E-04   -0.22589E-04  3444   0.860E-03    0.260E-02
RMM:   6    -0.232366136078E+04    0.14382E-05   -0.23948E-05  2978   0.459E-03
  27 F= -.23442099E+04 E0= -.23442099E+04  d E =-.622305E-06  mag=     4.0000
       N       E                     dE             d eps       ncg     rms          rms(c)
DAV:   1    -0.232370150356E+04   -0.40141E-01   -0.53164E-01  4480   0.305E-01    0.299E-01
RMM:   2    -0.232370123187E+04    0.27169E-03   -0.86157E-03  4043   0.307E-02    0.164E-01
RMM:   3    -0.232370143374E+04   -0.20187E-03   -0.82521E-04  3583   0.136E-02    0.218E-01
RMM:   4    -0.232370118570E+04    0.24804E-03   -0.42668E-04  3404   0.900E-03    0.104E-01
RMM:   5    -0.232370117511E+04    0.10593E-04   -0.12721E-04  3156   0.656E-03    0.190E-02
RMM:   6    -0.232370117597E+04   -0.86777E-06   -0.14046E-05  2871   0.357E-03
  28 F= -.23442494E+04 E0= -.23442494E+04  d E =-.584037E-06  mag=     4.0000
       N       E                     dE             d eps       ncg     rms          rms(c)
DAV:   1    -0.232367467424E+04    0.26501E-01   -0.10558E+00  4480   0.412E-01    0.358E-01
RMM:   2    -0.232367479987E+04   -0.12563E-03   -0.95366E-03  4104   0.328E-02    0.196E-01
RMM:   3    -0.232367510344E+04   -0.30357E-03   -0.82549E-04  3962   0.136E-02    0.221E-01
RMM:   4    -0.232367500101E+04    0.10243E-03   -0.65345E-04  3699   0.104E-02    0.153E-01
RMM:   5    -0.232367493595E+04    0.65052E-04   -0.17421E-04  3268   0.802E-03    0.191E-02
RMM:   6    -0.232367493677E+04   -0.81967E-06   -0.18750E-05  2915   0.384E-03
  29 F= -.23442232E+04 E0= -.23442232E+04  d E =-.569320E-06  mag=     4.0000
       N       E                     dE             d eps       ncg     rms          rms(c)
DAV:   1    -0.232374028642E+04   -0.65350E-01   -0.55108E-01  4960   0.320E-01    0.435E-01
RMM:   2    -0.232373858372E+04    0.17027E-02   -0.20821E-02  4431   0.426E-02    0.229E-01
RMM:   3    -0.232373862850E+04   -0.44780E-04   -0.17770E-03  4058   0.225E-02    0.296E-01
RMM:   4    -0.232373812593E+04    0.50257E-03   -0.79817E-04  3713   0.117E-02    0.142E-01
RMM:   5    -0.232373804138E+04    0.84553E-04   -0.29250E-04  3260   0.823E-03    0.296E-02
RMM:   6    -0.232373803820E+04    0.31756E-05   -0.30340E-05  2892   0.450E-03
  30 F= -.23442859E+04 E0= -.23442859E+04  d E =-.503048E-06  mag=     4.0000
       N       E                     dE             d eps       ncg     rms          rms(c)
DAV:   1    -0.232362405420E+04    0.11399E+00   -0.10708E+00  4960   0.440E-01    0.643E-01
RMM:   2    -0.232362029389E+04    0.37603E-02   -0.45198E-02  4606   0.623E-02    0.336E-01
RMM:   3    -0.232362008210E+04    0.21179E-03   -0.39372E-03  4419   0.342E-02    0.421E-01
RMM:   4    -0.232361909045E+04    0.99165E-03   -0.16941E-03  4309   0.166E-02    0.205E-01
RMM:   5    -0.232361892121E+04    0.16924E-03   -0.86825E-04  3648   0.118E-02    0.529E-02
RMM:   6    -0.232361888667E+04    0.34540E-04   -0.84729E-05  3079   0.653E-03    0.218E-02
RMM:   7    -0.232361888379E+04    0.28798E-05   -0.59587E-05  2957   0.335E-03
  31 F= -.23441676E+04 E0= -.23441676E+04  d E =-.673191E-06  mag=     4.0000
       N       E                     dE             d eps       ncg     rms          rms(c)
DAV:   1    -0.232368371752E+04   -0.64831E-01   -0.50318E-01  4880   0.330E-01    0.337E-01
RMM:   2    -0.232368258937E+04    0.11281E-02   -0.16849E-02  4424   0.423E-02    0.175E-01
RMM:   3    -0.232368233639E+04    0.25298E-03   -0.97801E-04  3688   0.192E-02    0.161E-01
RMM:   4    -0.232368231815E+04    0.18237E-04   -0.50727E-04  3618   0.953E-03    0.150E-01
RMM:   5    -0.232368220164E+04    0.11651E-03   -0.36037E-04  3484   0.931E-03    0.265E-02
RMM:   6    -0.232368219580E+04    0.58394E-05   -0.38697E-05  2977   0.513E-03
  32 F= -.23442306E+04 E0= -.23442306E+04  d E =-.103443E-05  mag=     4.0000
       N       E                     dE             d eps       ncg     rms          rms(c)
DAV:   1    -0.232369574576E+04   -0.13544E-01   -0.92445E-01  4560   0.421E-01    0.254E-01
RMM:   2    -0.232369560780E+04    0.13795E-03   -0.10000E-02  4332   0.382E-02    0.157E-01
RMM:   3    -0.232369537980E+04    0.22800E-03   -0.80427E-04  4393   0.151E-02    0.146E-01
RMM:   4    -0.232369542069E+04   -0.40888E-04   -0.63556E-04  3793   0.107E-02    0.148E-01
RMM:   5    -0.232369524673E+04    0.17396E-03   -0.27114E-04  3906   0.857E-03    0.308E-02
RMM:   6    -0.232369524614E+04    0.59704E-06   -0.57360E-05  3073   0.494E-03
  33 F= -.23442434E+04 E0= -.23442434E+04  d E =-.326516E-06  mag=     4.0000
       N       E                     dE             d eps       ncg     rms          rms(c)
DAV:   1    -0.232369535331E+04   -0.10658E-03   -0.45255E-01  4480   0.270E-01    0.140E-01
RMM:   2    -0.232369556598E+04   -0.21266E-03   -0.26710E-03  3841   0.222E-02    0.804E-02
RMM:   3    -0.232369560842E+04   -0.42443E-04   -0.19859E-04  3412   0.667E-03    0.815E-02
RMM:   4    -0.232369562341E+04   -0.14995E-04   -0.14006E-04  3027   0.561E-03    0.700E-02
RMM:   5    -0.232369560150E+04    0.21917E-04   -0.46738E-05  2986   0.418E-03    0.124E-02
RMM:   6    -0.232369560253E+04   -0.10340E-05   -0.95217E-06  2691   0.241E-03
  34 F= -.23442438E+04 E0= -.23442438E+04  d E =-.459936E-06  mag=     4.0000
       N       E                     dE             d eps       ncg     rms          rms(c)
DAV:   1    -0.232368033686E+04    0.15265E-01   -0.90230E-01  4480   0.401E-01    0.192E-01
RMM:   2    -0.232368064176E+04   -0.30489E-03   -0.34922E-03  3971   0.282E-02    0.117E-01
RMM:   3    -0.232368073471E+04   -0.92956E-04   -0.52636E-04  4316   0.116E-02    0.995E-02
RMM:   4    -0.232368074217E+04   -0.74580E-05   -0.26080E-04  3275   0.809E-03    0.819E-02
RMM:   5    -0.232368069763E+04    0.44540E-04   -0.57637E-05  3036   0.471E-03    0.183E-02
RMM:   6    -0.232368069854E+04   -0.90487E-06   -0.18004E-05  2932   0.313E-03
  35 F= -.23442290E+04 E0= -.23442290E+04  d E =-.712605E-06  mag=     4.0000
       N       E                     dE             d eps       ncg     rms          rms(c)
DAV:   1    -0.232368710730E+04   -0.64097E-02   -0.46185E-01  4800   0.299E-01    0.149E-01
RMM:   2    -0.232368727471E+04   -0.16741E-03   -0.31460E-03  4019   0.232E-02    0.885E-02
RMM:   3    -0.232368727777E+04   -0.30655E-05   -0.22119E-04  3440   0.791E-03    0.595E-02
RMM:   4    -0.232368736698E+04   -0.89209E-04   -0.17899E-04  3248   0.640E-03    0.108E-01
RMM:   5    -0.232368728660E+04    0.80379E-04   -0.84037E-05  3061   0.555E-03    0.103E-02
RMM:   6    -0.232368728843E+04   -0.18296E-05   -0.14530E-05  2786   0.263E-03
  36 F= -.23442356E+04 E0= -.23442356E+04  d E =-.105355E-05  mag=     4.0000
       N       E                     dE             d eps       ncg     rms          rms(c)
DAV:   1    -0.232368962978E+04   -0.23432E-02   -0.94973E-01  4800   0.419E-01    0.302E-01
RMM:   2    -0.232368894932E+04    0.68046E-03   -0.13047E-02  4407   0.410E-02    0.182E-01
RMM:   3    -0.232368854453E+04    0.40479E-03   -0.97970E-04  4358   0.175E-02    0.120E-01
RMM:   4    -0.232368882938E+04   -0.28484E-03   -0.10913E-03  4410   0.138E-02    0.228E-01
RMM:   5    -0.232368839868E+04    0.43069E-03   -0.39633E-04  4373   0.100E-02    0.338E-02
RMM:   6    -0.232368838902E+04    0.96697E-05   -0.69738E-05  3090   0.476E-03
  37 F= -.23442367E+04 E0= -.23442367E+04  d E =-.304120E-06  mag=     4.0000
