       N       E                     dE             d eps       ncg     rms          rms(c)
DAV:   1     0.129525330056E+05    0.12953E+05   -0.84159E+05  4528   0.144E+03
DAV:   2    -0.105605791189E+04   -0.14009E+05   -0.13394E+05  5152   0.331E+02
DAV:   3    -0.248179725682E+04   -0.14257E+04   -0.14104E+04  5424   0.112E+02
DAV:   4    -0.252841136873E+04   -0.46614E+02   -0.46374E+02  6792   0.305E+01
DAV:   5    -0.252922161905E+04   -0.81025E+00   -0.80899E+00  6104   0.344E+00    0.171E+02
RMM:   6    -0.149339505484E+04    0.10358E+04   -0.19532E+03  4454   0.387E+01    0.739E+01
RMM:   7    -0.166531501386E+04   -0.17192E+03   -0.32200E+02  5064   0.150E+01    0.549E+01
RMM:   8    -0.171141225944E+04   -0.46097E+02   -0.89388E+01  5267   0.845E+00    0.431E+01
RMM:   9    -0.177511444714E+04   -0.63702E+02   -0.60188E+01  5019   0.716E+00    0.367E+01
RMM:  10    -0.188374700815E+04   -0.10863E+03   -0.55393E+01  5173   0.693E+00    0.284E+01
RMM:  11    -0.198636705952E+04   -0.10262E+03   -0.41063E+01  5335   0.580E+00    0.209E+01
RMM:  12    -0.207113364069E+04   -0.84767E+02   -0.36269E+01  4944   0.484E+00    0.158E+01
RMM:  13    -0.214646395829E+04   -0.75330E+02   -0.35283E+01  4808   0.457E+00    0.115E+01
RMM:  14    -0.227077161282E+04   -0.12431E+03   -0.11548E+02  4469   0.743E+00    0.754E+00
RMM:  15    -0.229646188649E+04   -0.25690E+02   -0.22092E+01  4526   0.417E+00    0.485E+00
RMM:  16    -0.231383567758E+04   -0.17374E+02   -0.17024E+01  4451   0.275E+00    0.314E+00
RMM:  17    -0.231758098746E+04   -0.37453E+01   -0.33155E+00  4526   0.192E+00    0.176E+00
RMM:  18    -0.231980662992E+04   -0.22256E+01   -0.15940E+00  4657   0.721E-01    0.871E-01
RMM:  19    -0.232033488154E+04   -0.52825E+00   -0.26827E-01  4769   0.591E-01    0.489E-01
RMM:  20    -0.232044210373E+04   -0.10722E+00   -0.79726E-02  4971   0.180E-01    0.374E-01
RMM:  21    -0.232048462919E+04   -0.42525E-01   -0.17737E-02  4782   0.137E-01    0.238E-01
RMM:  22    -0.232051054569E+04   -0.25917E-01   -0.10632E-02  4549   0.800E-02    0.179E-01
RMM:  23    -0.232052442931E+04   -0.13884E-01   -0.40262E-03  4618   0.566E-02    0.105E-01
RMM:  24    -0.232053486740E+04   -0.10438E-01   -0.29164E-03  4468   0.408E-02    0.908E-02
RMM:  25    -0.232054419893E+04   -0.93315E-02   -0.28435E-03  4499   0.403E-02    0.589E-02
RMM:  26    -0.232054803298E+04   -0.38341E-02   -0.12729E-03  4555   0.279E-02    0.262E-02
RMM:  27    -0.232054994203E+04   -0.19091E-02   -0.57654E-04  4198   0.160E-02    0.147E-02
RMM:  28    -0.232055057341E+04   -0.63138E-03   -0.15625E-04  3839   0.118E-02    0.897E-03
RMM:  29    -0.232055083819E+04   -0.26477E-03   -0.68948E-05  3588   0.605E-03    0.478E-03
RMM:  30    -0.232055097417E+04   -0.13598E-03   -0.24691E-05  3133   0.538E-03    0.315E-03
RMM:  31    -0.232055103579E+04   -0.61621E-04   -0.15114E-05  2983   0.328E-03    0.166E-03
RMM:  32    -0.232055105340E+04   -0.17608E-04   -0.51375E-06  2728   0.285E-03    0.105E-03
RMM:  33    -0.232055106019E+04   -0.67885E-05   -0.35719E-06  2418   0.191E-03
   1 F= -.23415401E+04 E0= -.23415394E+04  d E =-.234154E+04  mag=     5.9863
       N       E                     dE             d eps       ncg     rms          rms(c)
DAV:   1    -0.232045515712E+04    0.95896E-01   -0.60548E+01  5048   0.560E+00    0.222E+00
RMM:   2    -0.232087453266E+04   -0.41938E+00   -0.48767E+00  6282   0.134E+00    0.121E+00
RMM:   3    -0.232086418125E+04    0.10351E-01   -0.26505E-01  5772   0.341E-01    0.878E-01
RMM:   4    -0.232086437197E+04   -0.19072E-03   -0.43392E-02  5682   0.115E-01    0.924E-01
RMM:   5    -0.232086010517E+04    0.42668E-02   -0.22557E-02  5649   0.795E-02    0.631E-01
RMM:   6    -0.232085737444E+04    0.27307E-02   -0.70430E-03  5761   0.492E-02    0.210E-01
RMM:   7    -0.232085690103E+04    0.47340E-03   -0.14352E-03  5232   0.252E-02    0.896E-02
RMM:   8    -0.232085685126E+04    0.49771E-04   -0.46904E-04  4208   0.122E-02    0.451E-02
RMM:   9    -0.232085686574E+04   -0.14474E-04   -0.12631E-04  3536   0.758E-03    0.240E-02
RMM:  10    -0.232085688023E+04   -0.14492E-04   -0.33804E-05  2980   0.516E-03    0.139E-02
RMM:  11    -0.232085688709E+04   -0.68632E-05   -0.11704E-05  2916   0.371E-03
   2 F= -.23418462E+04 E0= -.23418460E+04  d E =-.306075E+00  mag=     5.9957
       N       E                     dE             d eps       ncg     rms          rms(c)
DAV:   1    -0.232086275388E+04   -0.58736E-02   -0.52451E+00  4768   0.165E+00    0.588E-01
RMM:   2    -0.232089818133E+04   -0.35427E-01   -0.39204E-01  6116   0.370E-01    0.339E-01
RMM:   3    -0.232089733451E+04    0.84682E-03   -0.28320E-02  5581   0.139E-01    0.281E-01
RMM:   4    -0.232089731266E+04    0.21849E-04   -0.36472E-03  5483   0.301E-02    0.266E-01
RMM:   5    -0.232089686936E+04    0.44330E-03   -0.17133E-03  5173   0.243E-02    0.149E-01
RMM:   6    -0.232089671692E+04    0.15244E-03   -0.58051E-04  4802   0.152E-02    0.607E-02
RMM:   7    -0.232089668119E+04    0.35730E-04   -0.10616E-04  3210   0.766E-03    0.276E-02
RMM:   8    -0.232089667710E+04    0.40938E-05   -0.21944E-05  2973   0.405E-03
   3 F= -.23418859E+04 E0= -.23418856E+04  d E =-.345751E+00  mag=     5.9957
       N       E                     dE             d eps       ncg     rms          rms(c)
DAV:   1    -0.232096433394E+04   -0.67653E-01   -0.19456E+01  4592   0.364E+00    0.105E+00
RMM:   2    -0.232110872941E+04   -0.14440E+00   -0.15261E+00  6318   0.787E-01    0.782E-01
RMM:   3    -0.232111047524E+04   -0.17458E-02   -0.11296E-01  5795   0.215E-01    0.615E-01
RMM:   4    -0.232110785840E+04    0.26168E-02   -0.12674E-02  5819   0.518E-02    0.402E-01
RMM:   5    -0.232110694126E+04    0.91714E-03   -0.33692E-03  5487   0.308E-02    0.303E-01
RMM:   6    -0.232110582364E+04    0.11176E-02   -0.41188E-03  5289   0.411E-02    0.950E-02
RMM:   7    -0.232110581631E+04    0.73379E-05   -0.42769E-04  4445   0.168E-02    0.453E-02
RMM:   8    -0.232110580020E+04    0.16111E-04   -0.84776E-05  3448   0.586E-03    0.254E-02
RMM:   9    -0.232110580339E+04   -0.31905E-05   -0.42423E-05  2988   0.522E-03
   4 F= -.23420962E+04 E0= -.23420962E+04  d E =-.210383E+00  mag=     5.9986
       N       E                     dE             d eps       ncg     rms          rms(c)
DAV:   1    -0.232084552523E+04    0.26027E+00   -0.55086E+01  4524   0.615E+00    0.175E+00
RMM:   2    -0.232125643874E+04   -0.41091E+00   -0.43455E+00  6304   0.135E+00    0.136E+00
RMM:   3    -0.232126164671E+04   -0.52080E-02   -0.32659E-01  5844   0.371E-01    0.114E+00
RMM:   4    -0.232125230070E+04    0.93460E-02   -0.36459E-02  5982   0.898E-02    0.688E-01
RMM:   5    -0.232124954576E+04    0.27549E-02   -0.99078E-03  5755   0.511E-02    0.518E-01
RMM:   6    -0.232124635138E+04    0.31944E-02   -0.12681E-02  5279   0.711E-02    0.175E-01
RMM:   7    -0.232124634457E+04    0.68133E-05   -0.14306E-03  5000   0.302E-02    0.805E-02
RMM:   8    -0.232124629622E+04    0.48351E-04   -0.32541E-04  4539   0.103E-02    0.469E-02
RMM:   9    -0.232124629976E+04   -0.35437E-05   -0.14641E-04  3395   0.931E-03    0.193E-02
RMM:  10    -0.232124632159E+04   -0.21822E-04   -0.42941E-05  3155   0.488E-03    0.975E-03
RMM:  11    -0.232124633461E+04   -0.13020E-04   -0.11121E-05  2876   0.420E-03    0.535E-03
RMM:  12    -0.232124634280E+04   -0.81969E-05   -0.68255E-06  2838   0.293E-03
   5 F= -.23422389E+04 E0= -.23422389E+04  d E =-.353052E+00  mag=     5.9999
       N       E                     dE             d eps       ncg     rms          rms(c)
DAV:   1    -0.232112717358E+04    0.11916E+00   -0.27911E+01  4528   0.464E+00    0.139E+00
RMM:   2    -0.232136141782E+04   -0.23424E+00   -0.24835E+00  6171   0.108E+00    0.999E-01
RMM:   3    -0.232136466975E+04   -0.32519E-02   -0.18094E-01  5454   0.328E-01    0.941E-01
RMM:   4    -0.232135951654E+04    0.51532E-02   -0.22344E-02  5890   0.758E-02    0.541E-01
RMM:   5    -0.232135766815E+04    0.18484E-02   -0.66097E-03  5732   0.493E-02    0.360E-01
RMM:   6    -0.232135602473E+04    0.16434E-02   -0.55010E-03  5633   0.510E-02    0.121E-01
RMM:   7    -0.232135599374E+04    0.30992E-04   -0.64035E-04  5003   0.217E-02    0.579E-02
RMM:   8    -0.232135597174E+04    0.21993E-04   -0.11991E-04  3650   0.687E-03    0.307E-02
RMM:   9    -0.232135597269E+04   -0.94216E-06   -0.39259E-05  3066   0.576E-03
   6 F= -.23423515E+04 E0= -.23423515E+04  d E =-.112625E+00  mag=     5.9999
       N       E                     dE             d eps       ncg     rms          rms(c)
DAV:   1    -0.232135578336E+04    0.18839E-03   -0.27278E-02  5424   0.146E-01    0.436E-02
RMM:   2    -0.232135601467E+04   -0.23131E-03   -0.23575E-03  5906   0.334E-02    0.354E-02
RMM:   3    -0.232135602548E+04   -0.10812E-04   -0.20032E-04  3127   0.122E-02    0.352E-02
RMM:   4    -0.232135601894E+04    0.65409E-05   -0.23510E-05  2931   0.352E-03
   7 F= -.23423517E+04 E0= -.23423517E+04  d E =-.112764E+00  mag=     5.9999
       N       E                     dE             d eps       ncg     rms          rms(c)
DAV:   1    -0.232128409894E+04    0.71927E-01   -0.16500E+01  4528   0.351E+00    0.102E+00
RMM:   2    -0.232141730307E+04   -0.13320E+00   -0.14077E+00  6246   0.781E-01    0.691E-01
RMM:   3    -0.232142442165E+04   -0.71186E-02   -0.11765E-01  5894   0.238E-01    0.762E-01
RMM:   4    -0.232142062054E+04    0.38011E-02   -0.11942E-02  5989   0.548E-02    0.321E-01
RMM:   5    -0.232141960219E+04    0.10183E-02   -0.32855E-03  5402   0.340E-02    0.211E-01
RMM:   6    -0.232141915523E+04    0.44696E-03   -0.23078E-03  5566   0.331E-02    0.119E-01
RMM:   7    -0.232141901375E+04    0.14148E-03   -0.46207E-04  5004   0.163E-02    0.492E-02
RMM:   8    -0.232141899295E+04    0.20797E-04   -0.66383E-05  3204   0.657E-03    0.236E-02
RMM:   9    -0.232141898683E+04    0.61184E-05   -0.26913E-05  2973   0.475E-03
   8 F= -.23424170E+04 E0= -.23424169E+04  d E =-.652860E-01  mag=     5.9995
       N       E                     dE             d eps       ncg     rms          rms(c)
DAV:   1    -0.232135377311E+04    0.65220E-01   -0.96923E+00  4528   0.268E+00    0.780E-01
RMM:   2    -0.232143196641E+04   -0.78193E-01   -0.82606E-01  6240   0.594E-01    0.521E-01
RMM:   3    -0.232143598163E+04   -0.40152E-02   -0.68340E-02  5885   0.180E-01    0.567E-01
RMM:   4    -0.232143388910E+04    0.20925E-02   -0.68938E-03  5895   0.416E-02    0.247E-01
RMM:   5    -0.232143328989E+04    0.59920E-03   -0.19532E-03  5339   0.265E-02    0.164E-01
RMM:   6    -0.232143301793E+04    0.27197E-03   -0.13617E-03  5452   0.254E-02    0.907E-02
RMM:   7    -0.232143293733E+04    0.80599E-04   -0.26538E-04  4564   0.126E-02    0.398E-02
RMM:   8    -0.232143292251E+04    0.14814E-04   -0.39917E-05  3047   0.552E-03    0.181E-02
RMM:   9    -0.232143291906E+04    0.34497E-05   -0.16141E-05  2941   0.388E-03
   9 F= -.23424327E+04 E0= -.23424325E+04  d E =-.809718E-01  mag=     5.9976
       N       E                     dE             d eps       ncg     rms          rms(c)
DAV:   1    -0.232136794983E+04    0.64973E-01   -0.16311E+01  4492   0.337E+00    0.949E-01
RMM:   2    -0.232149233799E+04   -0.12439E+00   -0.12676E+00  6271   0.750E-01    0.802E-01
RMM:   3    -0.232149730965E+04   -0.49717E-02   -0.10687E-01  6055   0.209E-01    0.761E-01
RMM:   4    -0.232149339351E+04    0.39161E-02   -0.11451E-02  5857   0.520E-02    0.296E-01
RMM:   5    -0.232149270916E+04    0.68435E-03   -0.26952E-03  5527   0.305E-02    0.220E-01
RMM:   6    -0.232149208905E+04    0.62011E-03   -0.21252E-03  5447   0.317E-02    0.109E-01
RMM:   7    -0.232149200192E+04    0.87136E-04   -0.42139E-04  4736   0.155E-02    0.426E-02
RMM:   8    -0.232149198364E+04    0.18276E-04   -0.54717E-05  3164   0.687E-03    0.214E-02
RMM:   9    -0.232149197713E+04    0.65134E-05   -0.24794E-05  2937   0.474E-03
  10 F= -.23424933E+04 E0= -.23424928E+04  d E =-.606827E-01  mag=     5.9917
       N       E                     dE             d eps       ncg     rms          rms(c)
DAV:   1    -0.232124435272E+04    0.24763E+00   -0.36242E+01  4488   0.503E+00    0.144E+00
RMM:   2    -0.232152623793E+04   -0.28189E+00   -0.28743E+00  6269   0.112E+00    0.124E+00
RMM:   3    -0.232153731952E+04   -0.11082E-01   -0.24405E-01  6075   0.313E-01    0.118E+00
RMM:   4    -0.232152773814E+04    0.95814E-02   -0.25605E-02  5943   0.784E-02    0.454E-01
RMM:   5    -0.232152634526E+04    0.13929E-02   -0.64014E-03  5741   0.450E-02    0.351E-01
RMM:   6    -0.232152473153E+04    0.16137E-02   -0.49555E-03  5425   0.472E-02    0.165E-01
RMM:   7    -0.232152455287E+04    0.17866E-03   -0.11042E-03  4904   0.240E-02    0.599E-02
RMM:   8    -0.232152450736E+04    0.45506E-04   -0.15058E-04  3878   0.111E-02    0.347E-02
RMM:   9    -0.232152448939E+04    0.17973E-04   -0.57513E-05  3178   0.716E-03    0.167E-02
RMM:  10    -0.232152448650E+04    0.28837E-05   -0.28296E-05  3101   0.464E-03
  11 F= -.23425282E+04 E0= -.23425261E+04  d E =-.955023E-01  mag=     5.9578
       N       E                     dE             d eps       ncg     rms          rms(c)
DAV:   1    -0.232146218797E+04    0.62301E-01   -0.10287E+01  4512   0.266E+00    0.854E-01
RMM:   2    -0.232157038417E+04   -0.10820E+00   -0.11017E+00  6451   0.648E-01    0.794E-01
RMM:   3    -0.232157205525E+04   -0.16711E-02   -0.88461E-02  6031   0.174E-01    0.667E-01
RMM:   4    -0.232156905143E+04    0.30038E-02   -0.96221E-03  5713   0.436E-02    0.271E-01
RMM:   5    -0.232156853986E+04    0.51156E-03   -0.17856E-03  5397   0.229E-02    0.199E-01
RMM:   6    -0.232156796913E+04    0.57074E-03   -0.16183E-03  5287   0.264E-02    0.877E-02
RMM:   7    -0.232156795204E+04    0.17089E-04   -0.34548E-04  4341   0.137E-02    0.353E-02
RMM:   8    -0.232156794224E+04    0.98021E-05   -0.44997E-05  3075   0.648E-03
  12 F= -.23425727E+04 E0= -.23425698E+04  d E =-.445313E-01  mag=     5.9362
       N       E                     dE             d eps       ncg     rms          rms(c)
DAV:   1    -0.232134509805E+04    0.22285E+00   -0.23700E+01  4472   0.405E+00    0.131E+00
RMM:   2    -0.232159677728E+04   -0.25168E+00   -0.25616E+00  6452   0.996E-01    0.124E+00
RMM:   3    -0.232160078954E+04   -0.40123E-02   -0.21225E-01  6047   0.268E-01    0.106E+00
RMM:   4    -0.232159326443E+04    0.75251E-02   -0.22493E-02  5920   0.670E-02    0.431E-01
RMM:   5    -0.232159202265E+04    0.12418E-02   -0.44103E-03  5767   0.342E-02    0.310E-01
RMM:   6    -0.232159066835E+04    0.13543E-02   -0.38376E-03  5276   0.400E-02    0.148E-01
RMM:   7    -0.232159062389E+04    0.44456E-04   -0.87046E-04  4808   0.215E-02    0.653E-02
RMM:   8    -0.232159060557E+04    0.18321E-04   -0.12832E-04  3622   0.944E-03    0.435E-02
RMM:   9    -0.232159061916E+04   -0.13590E-04   -0.94188E-05  3355   0.741E-03    0.228E-02
RMM:  10    -0.232159065077E+04   -0.31614E-04   -0.27210E-05  2999   0.470E-03    0.169E-02
RMM:  11    -0.232159068180E+04   -0.31022E-04   -0.14602E-05  2890   0.407E-03    0.113E-02
RMM:  12    -0.232159071097E+04   -0.29175E-04   -0.94177E-06  2876   0.340E-03    0.814E-03
RMM:  13    -0.232159074485E+04   -0.33878E-04   -0.91807E-06  2859   0.315E-03    0.570E-03
RMM:  14    -0.232159076198E+04   -0.17129E-04   -0.54837E-06  2795   0.286E-03    0.382E-03
RMM:  15    -0.232159077365E+04   -0.11671E-04   -0.37908E-06  2613   0.234E-03    0.274E-03
RMM:  16    -0.232159077856E+04   -0.49100E-05   -0.21425E-06  2507   0.195E-03
  13 F= -.23425970E+04 E0= -.23425911E+04  d E =-.688747E-01  mag=     5.8149
       N       E                     dE             d eps       ncg     rms          rms(c)
DAV:   1    -0.232152146012E+04    0.69314E-01   -0.84141E+00  4496   0.238E+00    0.886E-01
RMM:   2    -0.232162634800E+04   -0.10489E+00   -0.10435E+00  6434   0.620E-01    0.102E+00
RMM:   3    -0.232162553641E+04    0.81159E-03   -0.85529E-02  6021   0.173E-01    0.862E-01
RMM:   4    -0.232162354141E+04    0.19950E-02   -0.96614E-03  5376   0.433E-02    0.733E-01
RMM:   5    -0.232162390488E+04   -0.36347E-03   -0.19432E-03  4615   0.256E-02    0.744E-01
RMM:   6    -0.232162098058E+04    0.29243E-02   -0.35453E-03  4741   0.318E-02    0.428E-01
RMM:   7    -0.232161955494E+04    0.14256E-02   -0.31661E-03  4946   0.279E-02    0.444E-01
RMM:   8    -0.232161508163E+04    0.44733E-02   -0.68218E-03  5058   0.449E-02    0.507E-01
RMM:   9    -0.232160974393E+04    0.53377E-02   -0.49299E-03  4651   0.386E-02    0.739E-01
RMM:  10    -0.232161994145E+04   -0.10198E-01   -0.18792E-02  4691   0.694E-02    0.365E-01
RMM:  11    -0.232162104810E+04   -0.11067E-02   -0.48003E-03  4567   0.420E-02    0.378E-01
RMM:  12    -0.232162325610E+04   -0.22080E-02   -0.54264E-03  5036   0.348E-02    0.595E-01
RMM:  13    -0.232162139573E+04    0.18604E-02   -0.14883E-03  4321   0.260E-02    0.426E-01
RMM:  14    -0.232162000778E+04    0.13880E-02   -0.24330E-03  4412   0.243E-02    0.362E-01
RMM:  15    -0.232161829679E+04    0.17110E-02   -0.32403E-03  4688   0.294E-02    0.358E-01
RMM:  16    -0.232161704114E+04    0.12557E-02   -0.20007E-03  4498   0.227E-02    0.420E-01
RMM:  17    -0.232161578601E+04    0.12551E-02   -0.11260E-03  4389   0.173E-02    0.501E-01
RMM:  18    -0.232161769320E+04   -0.19072E-02   -0.12174E-03  4202   0.185E-02    0.386E-01
RMM:  19    -0.232162009536E+04   -0.24022E-02   -0.51367E-03  4712   0.359E-02    0.341E-01
RMM:  20    -0.232162293590E+04   -0.28405E-02   -0.58358E-03  4829   0.394E-02    0.527E-01
RMM:  21    -0.232162418677E+04   -0.12509E-02   -0.13860E-03  4546   0.207E-02    0.632E-01
RMM:  22    -0.232162400669E+04    0.18008E-03   -0.15332E-04  3272   0.811E-03    0.626E-01
RMM:  23    -0.232162226117E+04    0.17455E-02   -0.80848E-04  4050   0.151E-02    0.508E-01
RMM:  24    -0.232161960774E+04    0.26534E-02   -0.41029E-03  4745   0.320E-02    0.354E-01
RMM:  25    -0.232161746122E+04    0.21465E-02   -0.51252E-03  4833   0.360E-02    0.385E-01
RMM:  26    -0.232161636070E+04    0.11005E-02   -0.17813E-03  4471   0.223E-02    0.460E-01
RMM:  27    -0.232161508639E+04    0.12743E-02   -0.11052E-03  4379   0.163E-02    0.554E-01
RMM:  28    -0.232161487850E+04    0.20789E-03   -0.14631E-04  3261   0.813E-03    0.570E-01
RMM:  29    -0.232161487659E+04    0.19019E-05   -0.17270E-05  2887   0.325E-03
  14 F= -.23426222E+04 E0= -.23426193E+04  d E =-.251548E-01  mag=     6.1568
       N       E                     dE             d eps       ncg     rms          rms(c)
DAV:   1    -0.232155804873E+04    0.56830E-01   -0.55425E+00  4508   0.193E+00    0.978E-01
RMM:   2    -0.232163000197E+04   -0.71953E-01   -0.68982E-01  6408   0.503E-01    0.100E+00
RMM:   3    -0.232163177034E+04   -0.17684E-02   -0.56822E-02  5752   0.146E-01    0.114E+00
RMM:   4    -0.232163164610E+04    0.12425E-03   -0.69128E-03  5207   0.306E-02    0.115E+00
RMM:   5    -0.232163011445E+04    0.15316E-02   -0.17679E-02  5099   0.690E-02    0.101E+00
RMM:   6    -0.232161670936E+04    0.13405E-01   -0.16614E-02  5029   0.657E-02    0.104E+00
RMM:   7    -0.232161502909E+04    0.16803E-02   -0.15257E-03  4495   0.264E-02    0.110E+00
RMM:   8    -0.232162646257E+04   -0.11433E-01   -0.15565E-02  4802   0.648E-02    0.701E-01
RMM:   9    -0.232162940639E+04   -0.29438E-02   -0.13656E-02  4699   0.654E-02    0.808E-01
RMM:  10    -0.232163693141E+04   -0.75250E-02   -0.19428E-02  4908   0.727E-02    0.150E+00
RMM:  11    -0.232163394169E+04    0.29897E-02   -0.15223E-03  4240   0.393E-02    0.132E+00
RMM:  12    -0.232163000021E+04    0.39415E-02   -0.32001E-03  4640   0.316E-02    0.109E+00
RMM:  13    -0.232162347311E+04    0.65271E-02   -0.17743E-02  4810   0.684E-02    0.703E-01
RMM:  14    -0.232161833582E+04    0.51373E-02   -0.13282E-02  4811   0.631E-02    0.898E-01
RMM:  15    -0.232161261530E+04    0.57205E-02   -0.75167E-03  5054   0.428E-02    0.120E+00
RMM:  16    -0.232161943340E+04   -0.68181E-02   -0.30862E-03  4612   0.304E-02    0.883E-01
RMM:  17    -0.232162413598E+04   -0.47026E-02   -0.53672E-03  4725   0.380E-02    0.649E-01
RMM:  18    -0.232162846543E+04   -0.43294E-02   -0.64167E-03  4917   0.415E-02    0.640E-01
RMM:  19    -0.232163534424E+04   -0.68788E-02   -0.93895E-03  4972   0.479E-02    0.974E-01
RMM:  20    -0.232163065396E+04    0.46903E-02   -0.20269E-03  4403   0.310E-02    0.747E-01
RMM:  21    -0.232162517449E+04    0.54795E-02   -0.74988E-03  4715   0.417E-02    0.634E-01
RMM:  22    -0.232162084765E+04    0.43268E-02   -0.59243E-03  4703   0.411E-02    0.767E-01
RMM:  23    -0.232161494535E+04    0.59023E-02   -0.67640E-03  5038   0.399E-02    0.108E+00
RMM:  24    -0.232161157432E+04    0.33710E-02   -0.18096E-03  4541   0.242E-02    0.125E+00
RMM:  25    -0.232161339537E+04   -0.18210E-02   -0.16872E-04  3414   0.860E-03    0.116E+00
RMM:  26    -0.232161963337E+04   -0.62380E-02   -0.39203E-03  4569   0.313E-02    0.827E-01
RMM:  27    -0.232162588822E+04   -0.62549E-02   -0.92076E-03  4898   0.507E-02    0.594E-01
RMM:  28    -0.232163152560E+04   -0.56374E-02   -0.94214E-03  5017   0.485E-02    0.750E-01
RMM:  29    -0.232163498624E+04   -0.34606E-02   -0.30866E-03  4724   0.302E-02    0.942E-01
RMM:  30    -0.232163679031E+04   -0.18041E-02   -0.10226E-03  4511   0.164E-02    0.105E+00
RMM:  31    -0.232163678447E+04    0.58392E-05   -0.94479E-05  3120   0.798E-03
  15 F= -.23426449E+04 E0= -.23426310E+04  d E =-.478607E-01  mag=     5.5626
       N       E                     dE             d eps       ncg     rms          rms(c)
DAV:   1    -0.232137445062E+04    0.26234E+00   -0.22100E+01  4488   0.386E+00    0.252E+00
RMM:   2    -0.232173110195E+04   -0.35665E+00   -0.29403E+00  6396   0.105E+00    0.304E+00
RMM:   3    -0.232171384209E+04    0.17260E-01   -0.25560E-01  5796   0.308E-01    0.208E+00
RMM:   4    -0.232169681011E+04    0.17032E-01   -0.74880E-02  5031   0.135E-01    0.164E+00
RMM:   5    -0.232172581725E+04   -0.29007E-01   -0.72723E-02  5817   0.147E-01    0.235E+00
RMM:   6    -0.232169341265E+04    0.32405E-01   -0.37892E-02  5075   0.111E-01    0.808E-01
RMM:   7    -0.232170047954E+04   -0.70669E-02   -0.19128E-02  5178   0.744E-02    0.518E-01
RMM:   8    -0.232171161387E+04   -0.11134E-01   -0.76670E-03  5030   0.495E-02    0.375E-01
RMM:   9    -0.232173500169E+04   -0.23388E-01   -0.82781E-03  4602   0.516E-02    0.274E-01
RMM:  10    -0.232175027519E+04   -0.15274E-01   -0.46094E-03  4564   0.458E-02    0.114E-01
RMM:  11    -0.232175606853E+04   -0.57933E-02   -0.11305E-03  4605   0.243E-02    0.811E-02
RMM:  12    -0.232176108450E+04   -0.50160E-02   -0.63753E-04  4169   0.161E-02    0.542E-02
RMM:  13    -0.232176522363E+04   -0.41391E-02   -0.60463E-04  4073   0.168E-02    0.344E-02
RMM:  14    -0.232176739069E+04   -0.21671E-02   -0.42235E-04  4050   0.138E-02    0.177E-02
RMM:  15    -0.232176810575E+04   -0.71506E-03   -0.16877E-04  3941   0.998E-03    0.945E-03
RMM:  16    -0.232176826175E+04   -0.15600E-03   -0.39446E-05  3372   0.510E-03    0.401E-03
RMM:  17    -0.232176830756E+04   -0.45810E-04   -0.83277E-06  2833   0.344E-03    0.253E-03
RMM:  18    -0.232176832498E+04   -0.17424E-04   -0.46656E-06  2759   0.257E-03    0.137E-03
RMM:  19    -0.232176833111E+04   -0.61251E-05   -0.27385E-06  2539   0.205E-03
  16 F= -.23427779E+04 E0= -.23427779E+04  d E =-.180835E+00  mag=     4.0002
       N       E                     dE             d eps       ncg     rms          rms(c)
DAV:   1    -0.232177023519E+04   -0.19102E-02   -0.48932E-01  5368   0.570E-01    0.199E-01
RMM:   2    -0.232177745203E+04   -0.72168E-02   -0.71158E-02  6486   0.156E-01    0.306E-01
RMM:   3    -0.232177720014E+04    0.25188E-03   -0.60830E-03  5070   0.493E-02    0.177E-01
RMM:   4    -0.232177702129E+04    0.17885E-03   -0.62290E-04  3552   0.117E-02    0.746E-02
RMM:   5    -0.232177699035E+04    0.30947E-04   -0.10439E-04  3100   0.685E-03    0.586E-02
RMM:   6    -0.232177695616E+04    0.34182E-04   -0.78045E-05  3331   0.626E-03    0.363E-02
RMM:   7    -0.232177694914E+04    0.70237E-05   -0.50749E-05  3187   0.531E-03
  17 F= -.23427867E+04 E0= -.23427867E+04  d E =-.883392E-02  mag=     4.0001
       N       E                     dE             d eps       ncg     rms          rms(c)
DAV:   1    -0.232173864674E+04    0.38309E-01   -0.43944E+00  4496   0.171E+00    0.601E-01
RMM:   2    -0.232180457941E+04   -0.65933E-01   -0.65106E-01  6549   0.476E-01    0.921E-01
RMM:   3    -0.232180163761E+04    0.29418E-02   -0.52585E-02  6003   0.138E-01    0.530E-01
RMM:   4    -0.232180004742E+04    0.15902E-02   -0.57806E-03  5446   0.349E-02    0.237E-01
RMM:   5    -0.232179970357E+04    0.34385E-03   -0.97054E-04  4525   0.170E-02    0.174E-01
RMM:   6    -0.232179939605E+04    0.30752E-03   -0.64365E-04  4974   0.156E-02    0.108E-01
RMM:   7    -0.232179932272E+04    0.73326E-04   -0.44370E-04  4495   0.143E-02    0.499E-02
RMM:   8    -0.232179930296E+04    0.19760E-04   -0.45425E-05  3067   0.541E-03    0.197E-02
RMM:   9    -0.232179929729E+04    0.56776E-05   -0.12759E-05  2874   0.377E-03
  18 F= -.23428097E+04 E0= -.23428097E+04  d E =-.317946E-01  mag=     4.0000
       N       E                     dE             d eps       ncg     rms          rms(c)
DAV:   1    -0.232158312400E+04    0.21618E+00   -0.17528E+01  4488   0.342E+00    0.121E+00
RMM:   2    -0.232185291415E+04   -0.26979E+00   -0.26577E+00  6546   0.971E-01    0.189E+00
RMM:   3    -0.232183783187E+04    0.15082E-01   -0.21775E-01  6114   0.273E-01    0.104E+00
RMM:   4    -0.232183189669E+04    0.59352E-02   -0.25030E-02  5875   0.736E-02    0.501E-01
RMM:   5    -0.232183012200E+04    0.17747E-02   -0.40864E-03  5399   0.348E-02    0.347E-01
RMM:   6    -0.232182883608E+04    0.12859E-02   -0.25291E-03  5437   0.299E-02    0.212E-01
RMM:   7    -0.232182855309E+04    0.28299E-03   -0.18242E-03  5220   0.279E-02    0.102E-01
RMM:   8    -0.232182846572E+04    0.87362E-04   -0.19789E-04  3948   0.939E-03    0.408E-02
RMM:   9    -0.232182844050E+04    0.25222E-04   -0.56433E-05  3028   0.665E-03    0.165E-02
RMM:  10    -0.232182844121E+04   -0.70373E-06   -0.27690E-05  2993   0.399E-03
  19 F= -.23428399E+04 E0= -.23428399E+04  d E =-.620047E-01  mag=     4.0000
       N       E                     dE             d eps       ncg     rms          rms(c)
DAV:   1    -0.232080561318E+04    0.10228E+01   -0.69510E+01  4488   0.686E+00    0.247E+00
RMM:   2    -0.232193267137E+04   -0.11271E+01   -0.11126E+01  6573   0.201E+00    0.374E+00
RMM:   3    -0.232185990835E+04    0.72763E-01   -0.97749E-01  5945   0.571E-01    0.209E+00
RMM:   4    -0.232183723279E+04    0.22676E-01   -0.11739E-01  6155   0.161E-01    0.111E+00
RMM:   5    -0.232182718030E+04    0.10052E-01   -0.18611E-02  5908   0.740E-02    0.692E-01
RMM:   6    -0.232182194127E+04    0.52390E-02   -0.10247E-02  5613   0.578E-02    0.409E-01
RMM:   7    -0.232182095160E+04    0.98967E-03   -0.73777E-03  5542   0.563E-02    0.207E-01
RMM:   8    -0.232182059306E+04    0.35854E-03   -0.95978E-04  5274   0.187E-02    0.904E-02
RMM:   9    -0.232182048812E+04    0.10494E-03   -0.26981E-04  3673   0.124E-02    0.359E-02
RMM:  10    -0.232182049892E+04   -0.10805E-04   -0.12262E-04  3539   0.724E-03    0.187E-02
RMM:  11    -0.232182050618E+04   -0.72531E-05   -0.16937E-05  2909   0.457E-03
  20 F= -.23428334E+04 E0= -.23428334E+04  d E =-.555705E-01  mag=     4.0000
       N       E                     dE             d eps       ncg     rms          rms(c)
DAV:   1    -0.232150648946E+04    0.31401E+00   -0.23747E+01  4488   0.398E+00    0.134E+00
RMM:   2    -0.232184714987E+04   -0.34066E+00   -0.34511E+00  6430   0.107E+00    0.192E+00
RMM:   3    -0.232185047570E+04   -0.33258E-02   -0.35274E-01  6004   0.427E-01    0.134E+00
RMM:   4    -0.232183911666E+04    0.11359E-01   -0.30525E-02  5884   0.762E-02    0.410E-01
RMM:   5    -0.232183769414E+04    0.14225E-02   -0.44299E-03  5656   0.347E-02    0.326E-01
RMM:   6    -0.232183699387E+04    0.70027E-03   -0.40616E-03  5160   0.350E-02    0.266E-01
RMM:   7    -0.232183643940E+04    0.55446E-03   -0.16164E-03  4554   0.291E-02    0.139E-01
RMM:   8    -0.232183625940E+04    0.18001E-03   -0.20869E-04  3678   0.101E-02    0.451E-02
RMM:   9    -0.232183622572E+04    0.33679E-04   -0.79046E-05  3190   0.641E-03    0.215E-02
RMM:  10    -0.232183622160E+04    0.41158E-05   -0.33448E-05  2998   0.447E-03
  21 F= -.23428484E+04 E0= -.23428484E+04  d E =-.705150E-01  mag=     4.0000
       N       E                     dE             d eps       ncg     rms          rms(c)
DAV:   1    -0.232185150537E+04   -0.15280E-01   -0.23230E+00  4528   0.127E+00    0.468E-01
RMM:   2    -0.232189578055E+04   -0.44275E-01   -0.45555E-01  6510   0.392E-01    0.621E-01
RMM:   3    -0.232189540806E+04    0.37250E-03   -0.35776E-02  5638   0.128E-01    0.458E-01
RMM:   4    -0.232189411702E+04    0.12910E-02   -0.39002E-03  5146   0.276E-02    0.183E-01
RMM:   5    -0.232189389318E+04    0.22384E-03   -0.63031E-04  4320   0.137E-02    0.137E-01
RMM:   6    -0.232189364493E+04    0.24825E-03   -0.60828E-04  4998   0.150E-02    0.687E-02
RMM:   7    -0.232189361656E+04    0.28373E-04   -0.20575E-04  4027   0.103E-02    0.319E-02
RMM:   8    -0.232189360431E+04    0.12246E-04   -0.21582E-05  2972   0.415E-03    0.148E-02
RMM:   9    -0.232189359989E+04    0.44170E-05   -0.96172E-06  2859   0.304E-03
  22 F= -.23429061E+04 E0= -.23429061E+04  d E =-.577568E-01  mag=     4.0000
       N       E                     dE             d eps       ncg     rms          rms(c)
DAV:   1    -0.232164476842E+04    0.24884E+00   -0.20807E+01  4488   0.381E+00    0.143E+00
RMM:   2    -0.232205982931E+04   -0.41506E+00   -0.42577E+00  6556   0.122E+00    0.186E+00
RMM:   3    -0.232204801917E+04    0.11810E-01   -0.35512E-01  5864   0.352E-01    0.129E+00
RMM:   4    -0.232203863811E+04    0.93811E-02   -0.40725E-02  6105   0.880E-02    0.633E-01
RMM:   5    -0.232203531527E+04    0.33228E-02   -0.59618E-03  5705   0.411E-02    0.410E-01
RMM:   6    -0.232203305537E+04    0.22599E-02   -0.50390E-03  5612   0.411E-02    0.204E-01
RMM:   7    -0.232203281395E+04    0.24142E-03   -0.22451E-03  5345   0.304E-02    0.104E-01
RMM:   8    -0.232203268921E+04    0.12474E-03   -0.23969E-04  4170   0.101E-02    0.526E-02
RMM:   9    -0.232203263287E+04    0.56343E-04   -0.10530E-04  3272   0.819E-03    0.208E-02
RMM:  10    -0.232203262844E+04    0.44268E-05   -0.67263E-05  3315   0.557E-03
  23 F= -.23430462E+04 E0= -.23430462E+04  d E =-.197782E+00  mag=     4.0000
       N       E                     dE             d eps       ncg     rms          rms(c)
DAV:   1    -0.232053090458E+04    0.15017E+01   -0.82544E+01  4488   0.764E+00    0.292E+00
RMM:   2    -0.232232265504E+04   -0.17918E+01   -0.18342E+01  6559   0.254E+00    0.362E+00
RMM:   3    -0.232220441877E+04    0.11824E+00   -0.15121E+00  5515   0.729E-01    0.223E+00
RMM:   4    -0.232217745558E+04    0.26963E-01   -0.18310E-01  6326   0.181E-01    0.132E+00
RMM:   5    -0.232216351361E+04    0.13942E-01   -0.24000E-02  6043   0.825E-02    0.837E-01
RMM:   6    -0.232215442378E+04    0.90898E-02   -0.21553E-02  5719   0.815E-02    0.423E-01
RMM:   7    -0.232215347633E+04    0.94745E-03   -0.88080E-03  5557   0.603E-02    0.218E-01
RMM:   8    -0.232215295246E+04    0.52387E-03   -0.93556E-04  5194   0.193E-02    0.111E-01
RMM:   9    -0.232215270389E+04    0.24857E-03   -0.52094E-04  4265   0.164E-02    0.395E-02
RMM:  10    -0.232215267476E+04    0.29124E-04   -0.20143E-04  4112   0.833E-03    0.210E-02
RMM:  11    -0.232215266364E+04    0.11124E-04   -0.21027E-05  2944   0.526E-03    0.872E-03
RMM:  12    -0.232215266024E+04    0.34008E-05   -0.16723E-05  2898   0.388E-03
  24 F= -.23431676E+04 E0= -.23431676E+04  d E =-.319232E+00  mag=     4.0000
       N       E                     dE             d eps       ncg     rms          rms(c)
DAV:   1    -0.232217011744E+04   -0.17454E-01   -0.23982E+00  4680   0.140E+00    0.485E-01
RMM:   2    -0.232220632174E+04   -0.36204E-01   -0.36959E-01  6246   0.389E-01    0.635E-01
RMM:   3    -0.232220465413E+04    0.16676E-02   -0.28114E-02  5735   0.123E-01    0.408E-01
RMM:   4    -0.232220344678E+04    0.12074E-02   -0.33555E-03  5531   0.295E-02    0.178E-01
RMM:   5    -0.232220324215E+04    0.20463E-03   -0.67812E-04  4864   0.172E-02    0.140E-01
RMM:   6    -0.232220297137E+04    0.27078E-03   -0.72202E-04  5124   0.185E-02    0.611E-02
RMM:   7    -0.232220294392E+04    0.27455E-04   -0.14674E-04  3930   0.109E-02    0.256E-02
RMM:   8    -0.232220293446E+04    0.94572E-05   -0.19737E-05  2963   0.370E-03
  25 F= -.23432183E+04 E0= -.23432183E+04  d E =-.506635E-01  mag=     4.0000
       N       E                     dE             d eps       ncg     rms          rms(c)
DAV:   1    -0.232197292838E+04    0.23002E+00   -0.21531E+01  4464   0.423E+00    0.147E+00
RMM:   2    -0.232230885904E+04   -0.33593E+00   -0.34357E+00  6294   0.120E+00    0.186E+00
RMM:   3    -0.232228950691E+04    0.19352E-01   -0.26354E-01  5819   0.327E-01    0.124E+00
RMM:   4    -0.232227897780E+04    0.10529E-01   -0.34407E-02  5995   0.937E-02    0.597E-01
RMM:   5    -0.232227587654E+04    0.31013E-02   -0.64716E-03  5762   0.514E-02    0.403E-01
RMM:   6    -0.232227354493E+04    0.23316E-02   -0.64737E-03  5351   0.541E-02    0.179E-01
RMM:   7    -0.232227332750E+04    0.21744E-03   -0.13949E-03  5122   0.299E-02    0.803E-02
RMM:   8    -0.232227323837E+04    0.89131E-04   -0.19746E-04  4253   0.952E-03    0.425E-02
RMM:   9    -0.232227319626E+04    0.42102E-04   -0.96715E-05  3489   0.881E-03    0.168E-02
RMM:  10    -0.232227319296E+04    0.33039E-05   -0.43804E-05  3231   0.553E-03
  26 F= -.23432896E+04 E0= -.23432896E+04  d E =-.122022E+00  mag=     4.0000
       N       E                     dE             d eps       ncg     rms          rms(c)
DAV:   1    -0.232227331828E+04   -0.12202E-03   -0.50683E+00  4512   0.202E+00    0.616E-01
RMM:   2    -0.232233555470E+04   -0.62236E-01   -0.61485E-01  6351   0.496E-01    0.964E-01
RMM:   3    -0.232233222196E+04    0.33327E-02   -0.55037E-02  5985   0.145E-01    0.460E-01
RMM:   4    -0.232233054279E+04    0.16792E-02   -0.51755E-03  5514   0.335E-02    0.182E-01
RMM:   5    -0.232233035638E+04    0.18641E-03   -0.92463E-04  5271   0.183E-02    0.174E-01
RMM:   6    -0.232233001445E+04    0.34193E-03   -0.10560E-03  5036   0.226E-02    0.104E-01
RMM:   7    -0.232232992871E+04    0.85737E-04   -0.32718E-04  4345   0.120E-02    0.355E-02
RMM:   8    -0.232232991150E+04    0.17211E-04   -0.31337E-05  2966   0.549E-03    0.191E-02
RMM:   9    -0.232232990969E+04    0.18080E-05   -0.19684E-05  2880   0.366E-03
  27 F= -.23433465E+04 E0= -.23433465E+04  d E =-.568197E-01  mag=     4.0000
       N       E                     dE             d eps       ncg     rms          rms(c)
DAV:   1    -0.232188910893E+04    0.44080E+00   -0.45560E+01  4472   0.603E+00    0.184E+00
RMM:   2    -0.232245495447E+04   -0.56585E+00   -0.57105E+00  6402   0.150E+00    0.266E+00
RMM:   3    -0.232243922923E+04    0.15725E-01   -0.49471E-01  6190   0.383E-01    0.164E+00
RMM:   4    -0.232241839427E+04    0.20835E-01   -0.50234E-02  5898   0.110E-01    0.602E-01
RMM:   5    -0.232241623883E+04    0.21554E-02   -0.92930E-03  5964   0.546E-02    0.533E-01
RMM:   6    -0.232241257221E+04    0.36666E-02   -0.10132E-02  5430   0.676E-02    0.278E-01
RMM:   7    -0.232241206422E+04    0.50799E-03   -0.33024E-03  5262   0.356E-02    0.107E-01
RMM:   8    -0.232241189188E+04    0.17234E-03   -0.31573E-04  4102   0.136E-02    0.584E-02
RMM:   9    -0.232241185954E+04    0.32349E-04   -0.20577E-04  3829   0.103E-02    0.233E-02
RMM:  10    -0.232241187304E+04   -0.13503E-04   -0.58184E-05  3133   0.614E-03    0.130E-02
RMM:  11    -0.232241188191E+04   -0.88685E-05   -0.11983E-05  2886   0.431E-03
  28 F= -.23434285E+04 E0= -.23434285E+04  d E =-.138869E+00  mag=     4.0000
       N       E                     dE             d eps       ncg     rms          rms(c)
DAV:   1    -0.232239356195E+04    0.18311E-01   -0.83593E+00  4504   0.263E+00    0.766E-01
RMM:   2    -0.232248527648E+04   -0.91715E-01   -0.85200E-01  6300   0.598E-01    0.138E+00
RMM:   3    -0.232247378683E+04    0.11490E-01   -0.68596E-02  5993   0.170E-01    0.502E-01
RMM:   4    -0.232247190298E+04    0.18839E-02   -0.74314E-03  5513   0.441E-02    0.231E-01
RMM:   5    -0.232247165150E+04    0.25148E-03   -0.14830E-03  5394   0.251E-02    0.217E-01
RMM:   6    -0.232247105086E+04    0.60064E-03   -0.15713E-03  5314   0.280E-02    0.127E-01
RMM:   7    -0.232247094499E+04    0.10587E-03   -0.39550E-04  4558   0.149E-02    0.343E-02
RMM:   8    -0.232247093168E+04    0.13310E-04   -0.50315E-05  3094   0.521E-03    0.232E-02
RMM:   9    -0.232247092785E+04    0.38286E-05   -0.22744E-05  2897   0.431E-03
  29 F= -.23434884E+04 E0= -.23434884E+04  d E =-.598867E-01  mag=     4.0000
       N       E                     dE             d eps       ncg     rms          rms(c)
DAV:   1    -0.232216375055E+04    0.30718E+00   -0.38741E+01  4488   0.565E+00    0.166E+00
RMM:   2    -0.232259623749E+04   -0.43249E+00   -0.40571E+00  6326   0.130E+00    0.291E+00
RMM:   3    -0.232254673572E+04    0.49502E-01   -0.33194E-01  6086   0.350E-01    0.117E+00
RMM:   4    -0.232253651483E+04    0.10221E-01   -0.36473E-02  5694   0.984E-02    0.523E-01
RMM:   5    -0.232253491701E+04    0.15978E-02   -0.69207E-03  5825   0.530E-02    0.467E-01
RMM:   6    -0.232253207320E+04    0.28438E-02   -0.75077E-03  5402   0.599E-02    0.273E-01
RMM:   7    -0.232253158458E+04    0.48863E-03   -0.20453E-03  5213   0.325E-02    0.786E-02
RMM:   8    -0.232253150930E+04    0.75280E-04   -0.26187E-04  4186   0.106E-02    0.530E-02
RMM:   9    -0.232253147953E+04    0.29770E-04   -0.12335E-04  3400   0.907E-03    0.201E-02
RMM:  10    -0.232253148323E+04   -0.37084E-05   -0.41319E-05  3155   0.530E-03
  30 F= -.23435507E+04 E0= -.23435507E+04  d E =-.122160E+00  mag=     4.0000
       N       E                     dE             d eps       ncg     rms          rms(c)
DAV:   1    -0.232251984413E+04    0.11635E-01   -0.14140E+00  4848   0.107E+00    0.313E-01
RMM:   2    -0.232253505884E+04   -0.15215E-01   -0.14115E-01  6286   0.240E-01    0.569E-01
RMM:   3    -0.232253329851E+04    0.17603E-02   -0.12285E-02  5650   0.763E-02    0.203E-01
RMM:   4    -0.232253301224E+04    0.28627E-03   -0.12804E-03  4754   0.179E-02    0.912E-02
RMM:   5    -0.232253297328E+04    0.38959E-04   -0.25533E-04  4461   0.109E-02    0.902E-02
RMM:   6    -0.232253287784E+04    0.95434E-04   -0.27151E-04  4487   0.122E-02    0.545E-02
RMM:   7    -0.232253285608E+04    0.21763E-04   -0.74028E-05  3373   0.704E-03    0.157E-02
RMM:   8    -0.232253285325E+04    0.28272E-05   -0.10705E-05  2888   0.364E-03
  31 F= -.23435523E+04 E0= -.23435523E+04  d E =-.123841E+00  mag=     4.0000
       N       E                     dE             d eps       ncg     rms          rms(c)
DAV:   1    -0.232247869373E+04    0.54162E-01   -0.14765E+01  4488   0.344E+00    0.104E+00
RMM:   2    -0.232261470513E+04   -0.13601E+00   -0.11979E+00  6211   0.692E-01    0.191E+00
RMM:   3    -0.232259002868E+04    0.24676E-01   -0.89870E-02  5876   0.198E-01    0.586E-01
RMM:   4    -0.232258760762E+04    0.24211E-02   -0.10867E-02  5102   0.509E-02    0.261E-01
RMM:   5    -0.232258726346E+04    0.34415E-03   -0.25446E-03  5563   0.367E-02    0.264E-01
RMM:   6    -0.232258662389E+04    0.63957E-03   -0.19902E-03  5579   0.298E-02    0.182E-01
RMM:   7    -0.232258631840E+04    0.30549E-03   -0.59289E-04  4909   0.186E-02    0.366E-02
RMM:   8    -0.232258630440E+04    0.13998E-04   -0.76339E-05  3212   0.574E-03    0.249E-02
RMM:   9    -0.232258629669E+04    0.77141E-05   -0.24555E-05  2925   0.479E-03
  32 F= -.23436073E+04 E0= -.23436073E+04  d E =-.549180E-01  mag=     4.0000
       N       E                     dE             d eps       ncg     rms          rms(c)
DAV:   1    -0.232246411449E+04    0.12219E+00   -0.19727E+01  4488   0.397E+00    0.120E+00
RMM:   2    -0.232264664439E+04   -0.18253E+00   -0.16136E+00  6242   0.806E-01    0.219E+00
RMM:   3    -0.232261343171E+04    0.33213E-01   -0.12088E-01  5903   0.228E-01    0.670E-01
RMM:   4    -0.232261021248E+04    0.32192E-02   -0.14500E-02  5147   0.588E-02    0.304E-01
RMM:   5    -0.232260975215E+04    0.46033E-03   -0.34082E-03  5585   0.424E-02    0.307E-01
RMM:   6    -0.232260886728E+04    0.88487E-03   -0.27087E-03  5643   0.347E-02    0.212E-01
RMM:   7    -0.232260845008E+04    0.41719E-03   -0.83421E-04  5083   0.219E-02    0.434E-02
RMM:   8    -0.232260842911E+04    0.20977E-04   -0.10771E-04  3419   0.660E-03    0.304E-02
RMM:   9    -0.232260841732E+04    0.11782E-04   -0.36278E-05  2948   0.552E-03    0.144E-02
RMM:  10    -0.232260841595E+04    0.13744E-05   -0.15735E-05  2910   0.391E-03
  33 F= -.23436311E+04 E0= -.23436311E+04  d E =-.787063E-01  mag=     4.0000
       N       E                     dE             d eps       ncg     rms          rms(c)
DAV:   1    -0.232250139570E+04    0.10702E+00   -0.21023E+01  4488   0.407E+00    0.123E+00
RMM:   2    -0.232270258638E+04   -0.20119E+00   -0.17879E+00  6253   0.835E-01    0.225E+00
RMM:   3    -0.232266647384E+04    0.36113E-01   -0.12833E-01  6004   0.229E-01    0.676E-01
RMM:   4    -0.232266322486E+04    0.32490E-02   -0.15678E-02  5197   0.611E-02    0.317E-01
RMM:   5    -0.232266272878E+04    0.49608E-03   -0.38420E-03  5735   0.435E-02    0.333E-01
RMM:   6    -0.232266174425E+04    0.98454E-03   -0.30549E-03  5616   0.374E-02    0.206E-01
RMM:   7    -0.232266130541E+04    0.43884E-03   -0.80777E-04  5084   0.197E-02    0.444E-02
RMM:   8    -0.232266128025E+04    0.25153E-04   -0.85314E-05  3300   0.663E-03    0.248E-02
RMM:   9    -0.232266127158E+04    0.86750E-05   -0.36089E-05  3033   0.542E-03
  34 F= -.23436856E+04 E0= -.23436856E+04  d E =-.545496E-01  mag=     4.0000
       N       E                     dE             d eps       ncg     rms          rms(c)
DAV:   1    -0.232261565289E+04    0.45627E-01   -0.71827E+00  4528   0.238E+00    0.710E-01
RMM:   2    -0.232268302905E+04   -0.67376E-01   -0.60319E-01  6251   0.487E-01    0.128E+00
RMM:   3    -0.232267174441E+04    0.11285E-01   -0.43037E-02  6015   0.133E-01    0.403E-01
RMM:   4    -0.232267054339E+04    0.12010E-02   -0.52443E-03  5103   0.356E-02    0.182E-01
RMM:   5    -0.232267028912E+04    0.25427E-03   -0.13037E-03  5468   0.257E-02    0.183E-01
RMM:   6    -0.232267004752E+04    0.24160E-03   -0.10136E-03  5212   0.218E-02    0.117E-01
RMM:   7    -0.232266988664E+04    0.16088E-03   -0.25358E-04  4202   0.115E-02    0.243E-02
RMM:   8    -0.232266987717E+04    0.94667E-05   -0.29128E-05  3009   0.475E-03
  35 F= -.23436952E+04 E0= -.23436952E+04  d E =-.641138E-01  mag=     4.0000
       N       E                     dE             d eps       ncg     rms          rms(c)
DAV:   1    -0.232255085236E+04    0.11903E+00   -0.13201E+01  4488   0.326E+00    0.103E+00
RMM:   2    -0.232272548508E+04   -0.17463E+00   -0.16548E+00  6352   0.737E-01    0.169E+00
RMM:   3    -0.232270945717E+04    0.16028E-01   -0.12881E-01  6132   0.215E-01    0.715E-01
RMM:   4    -0.232270604624E+04    0.34109E-02   -0.13809E-02  5595   0.545E-02    0.319E-01
RMM:   5    -0.232270543777E+04    0.60847E-03   -0.25881E-03  5424   0.329E-02    0.261E-01
RMM:   6    -0.232270453606E+04    0.90172E-03   -0.24378E-03  5463   0.308E-02    0.166E-01
RMM:   7    -0.232270432668E+04    0.20937E-03   -0.69885E-04  4961   0.198E-02    0.433E-02
RMM:   8    -0.232270429828E+04    0.28406E-04   -0.86740E-05  3389   0.617E-03    0.269E-02
RMM:   9    -0.232270428890E+04    0.93770E-05   -0.25438E-05  2915   0.482E-03
  36 F= -.23437306E+04 E0= -.23437306E+04  d E =-.354786E-01  mag=     4.0000
       N       E                     dE             d eps       ncg     rms          rms(c)
DAV:   1    -0.232266179016E+04    0.42508E-01   -0.41026E+00  4528   0.182E+00    0.576E-01
RMM:   2    -0.232271669662E+04   -0.54906E-01   -0.51301E-01  6351   0.412E-01    0.100E+00
RMM:   3    -0.232271063700E+04    0.60596E-02   -0.39399E-02  6085   0.117E-01    0.376E-01
RMM:   4    -0.232270975284E+04    0.88416E-03   -0.44091E-03  5345   0.301E-02    0.178E-01
RMM:   5    -0.232270954891E+04    0.20393E-03   -0.77649E-04  4762   0.186E-02    0.145E-01
RMM:   6    -0.232270927392E+04    0.27498E-03   -0.77834E-04  5202   0.177E-02    0.971E-02
RMM:   7    -0.232270919774E+04    0.76188E-04   -0.23246E-04  4110   0.121E-02    0.246E-02
RMM:   8    -0.232270918888E+04    0.88583E-05   -0.28732E-05  2989   0.428E-03
  37 F= -.23437361E+04 E0= -.23437361E+04  d E =-.409123E-01  mag=     4.0000
       N       E                     dE             d eps       ncg     rms          rms(c)
DAV:   1    -0.232262509238E+04    0.84105E-01   -0.61855E+00  4488   0.236E+00    0.803E-01
RMM:   2    -0.232272729201E+04   -0.10220E+00   -0.10393E+00  6207   0.603E-01    0.928E-01
RMM:   3    -0.232272863625E+04   -0.13442E-02   -0.86168E-02  6017   0.184E-01    0.754E-01
RMM:   4    -0.232272440847E+04    0.42278E-02   -0.91221E-03  5727   0.467E-02    0.229E-01
RMM:   5    -0.232272410389E+04    0.30459E-03   -0.22181E-03  5636   0.291E-02    0.194E-01
RMM:   6    -0.232272365372E+04    0.45016E-03   -0.13344E-03  5353   0.243E-02    0.104E-01
RMM:   7    -0.232272353413E+04    0.11960E-03   -0.29984E-04  4616   0.134E-02    0.295E-02
RMM:   8    -0.232272352297E+04    0.11157E-04   -0.38450E-05  3027   0.575E-03    0.167E-02
RMM:   9    -0.232272351925E+04    0.37170E-05   -0.15283E-05  2943   0.380E-03
  38 F= -.23437505E+04 E0= -.23437505E+04  d E =-.143998E-01  mag=     4.0000
       N       E                     dE             d eps       ncg     rms          rms(c)
DAV:   1    -0.232272350839E+04    0.14577E-04   -0.72223E-04  4976   0.266E-02    0.103E-02
RMM:   2    -0.232272352322E+04   -0.14828E-04   -0.13364E-04  4117   0.786E-03    0.160E-02
RMM:   3    -0.232272352215E+04    0.10730E-05   -0.12261E-05  2817   0.351E-03
  39 F= -.23437505E+04 E0= -.23437505E+04  d E =-.144030E-01  mag=     4.0000
       N       E                     dE             d eps       ncg     rms          rms(c)
DAV:   1    -0.232267446305E+04    0.49060E-01   -0.36696E+00  4528   0.179E+00    0.607E-01
RMM:   2    -0.232273820781E+04   -0.63745E-01   -0.63478E-01  6372   0.450E-01    0.783E-01
RMM:   3    -0.232273847977E+04   -0.27196E-03   -0.58255E-02  6071   0.141E-01    0.501E-01
RMM:   4    -0.232273686052E+04    0.16192E-02   -0.59055E-03  5528   0.337E-02    0.173E-01
RMM:   5    -0.232273669651E+04    0.16401E-03   -0.88121E-04  4698   0.178E-02    0.138E-01
RMM:   6    -0.232273644708E+04    0.24943E-03   -0.61640E-04  5113   0.166E-02    0.763E-02
RMM:   7    -0.232273640304E+04    0.44039E-04   -0.20695E-04  4340   0.113E-02    0.254E-02
RMM:   8    -0.232273639716E+04    0.58757E-05   -0.27294E-05  2989   0.495E-03
  40 F= -.23437644E+04 E0= -.23437644E+04  d E =-.138996E-01  mag=     4.0000
       N       E                     dE             d eps       ncg     rms          rms(c)
DAV:   1    -0.232260361649E+04    0.13279E+00   -0.82011E+00  4488   0.269E+00    0.911E-01
RMM:   2    -0.232274690881E+04   -0.14329E+00   -0.14249E+00  6380   0.677E-01    0.119E+00
RMM:   3    -0.232274668732E+04    0.22149E-03   -0.13138E-01  6122   0.209E-01    0.737E-01
RMM:   4    -0.232274323479E+04    0.34525E-02   -0.13143E-02  5697   0.504E-02    0.258E-01
RMM:   5    -0.232274286095E+04    0.37385E-03   -0.19389E-03  5276   0.261E-02    0.206E-01
RMM:   6    -0.232274230032E+04    0.56062E-03   -0.13055E-03  5401   0.240E-02    0.114E-01
RMM:   7    -0.232274219964E+04    0.10068E-03   -0.45957E-04  4931   0.159E-02    0.357E-02
RMM:   8    -0.232274218750E+04    0.12142E-04   -0.55001E-05  3159   0.632E-03    0.192E-02
RMM:   9    -0.232274218007E+04    0.74284E-05   -0.17320E-05  2907   0.458E-03
  41 F= -.23437716E+04 E0= -.23437716E+04  d E =-.211452E-01  mag=     4.0000
       N       E                     dE             d eps       ncg     rms          rms(c)
DAV:   1    -0.232273241699E+04    0.97705E-02   -0.97440E-01  4624   0.908E-01    0.299E-01
RMM:   2    -0.232274931248E+04   -0.16895E-01   -0.16835E-01  6447   0.222E-01    0.374E-01
RMM:   3    -0.232274977412E+04   -0.46164E-03   -0.16382E-02  5851   0.706E-02    0.257E-01
RMM:   4    -0.232274934830E+04    0.42582E-03   -0.15832E-03  4433   0.166E-02    0.795E-02
RMM:   5    -0.232274929866E+04    0.49642E-04   -0.17981E-04  3371   0.835E-03    0.594E-02
RMM:   6    -0.232274927498E+04    0.23675E-04   -0.14662E-04  3741   0.890E-03    0.467E-02
RMM:   7    -0.232274925225E+04    0.22732E-04   -0.53186E-05  3116   0.659E-03    0.164E-02
RMM:   8    -0.232274925112E+04    0.11311E-05   -0.99260E-06  2901   0.413E-03
  42 F= -.23437793E+04 E0= -.23437793E+04  d E =-.763187E-02  mag=     4.0000
       N       E                     dE             d eps       ncg     rms          rms(c)
DAV:   1    -0.232261248387E+04    0.13677E+00   -0.87469E+00  4488   0.272E+00    0.905E-01
RMM:   2    -0.232276708894E+04   -0.15461E+00   -0.15308E+00  6419   0.667E-01    0.119E+00
RMM:   3    -0.232276858296E+04   -0.14940E-02   -0.15025E-01  6142   0.213E-01    0.711E-01
RMM:   4    -0.232276552715E+04    0.30558E-02   -0.14066E-02  5688   0.480E-02    0.234E-01
RMM:   5    -0.232276502853E+04    0.49863E-03   -0.14188E-03  5009   0.221E-02    0.167E-01
RMM:   6    -0.232276491230E+04    0.11623E-03   -0.12003E-03  5436   0.223E-02    0.150E-01
RMM:   7    -0.232276466604E+04    0.24626E-03   -0.44024E-04  4714   0.155E-02    0.453E-02
RMM:   8    -0.232276465564E+04    0.10407E-04   -0.73312E-05  3266   0.619E-03    0.203E-02
RMM:   9    -0.232276465218E+04    0.34518E-05   -0.16428E-05  2915   0.439E-03
  43 F= -.23437963E+04 E0= -.23437963E+04  d E =-.246609E-01  mag=     4.0000
       N       E                     dE             d eps       ncg     rms          rms(c)
DAV:   1    -0.232214977360E+04    0.61488E+00   -0.34941E+01  4488   0.545E+00    0.184E+00
RMM:   2    -0.232279300324E+04   -0.64323E+00   -0.63034E+00  6436   0.136E+00    0.260E+00
RMM:   3    -0.232278241018E+04    0.10593E-01   -0.63057E-01  6152   0.434E-01    0.128E+00
RMM:   4    -0.232277283663E+04    0.95735E-02   -0.54675E-02  5741   0.941E-02    0.459E-01
RMM:   5    -0.232277049151E+04    0.23451E-02   -0.52116E-03  4978   0.437E-02    0.306E-01
RMM:   6    -0.232277044678E+04    0.44724E-04   -0.48126E-03  5496   0.475E-02    0.292E-01
RMM:   7    -0.232276943950E+04    0.10073E-02   -0.15575E-03  5247   0.289E-02    0.669E-02
RMM:   8    -0.232276941299E+04    0.26509E-04   -0.20946E-04  3819   0.838E-03    0.369E-02
RMM:   9    -0.232276940649E+04    0.65041E-05   -0.10082E-04  3198   0.843E-03    0.211E-02
RMM:  10    -0.232276941258E+04   -0.60948E-05   -0.20834E-05  2939   0.422E-03
  44 F= -.23438041E+04 E0= -.23438041E+04  d E =-.324334E-01  mag=     4.0000
       N       E                     dE             d eps       ncg     rms          rms(c)
DAV:   1    -0.232272484895E+04    0.44558E-01   -0.26788E+00  4528   0.151E+00    0.490E-01
RMM:   2    -0.232277037723E+04   -0.45528E-01   -0.46484E-01  6472   0.376E-01    0.502E-01
RMM:   3    -0.232277366397E+04   -0.32867E-02   -0.48154E-02  6050   0.115E-01    0.505E-01
RMM:   4    -0.232277188788E+04    0.17761E-02   -0.46586E-03  5489   0.283E-02    0.139E-01
RMM:   5    -0.232277174108E+04    0.14680E-03   -0.53537E-04  4113   0.134E-02    0.997E-02
RMM:   6    -0.232277168180E+04    0.59278E-04   -0.45484E-04  4754   0.135E-02    0.774E-02
RMM:   7    -0.232277160979E+04    0.72017E-04   -0.13788E-04  3819   0.943E-03    0.254E-02
RMM:   8    -0.232277160552E+04    0.42702E-05   -0.21806E-05  2958   0.470E-03
  45 F= -.23438055E+04 E0= -.23438055E+04  d E =-.338248E-01  mag=     4.0000
       N       E                     dE             d eps       ncg     rms          rms(c)
DAV:   1    -0.232269549358E+04    0.76116E-01   -0.49456E+00  4488   0.198E+00    0.695E-01
RMM:   2    -0.232278410064E+04   -0.88607E-01   -0.89435E-01  6414   0.480E-01    0.754E-01
RMM:   3    -0.232278934169E+04   -0.52410E-02   -0.97179E-02  6111   0.163E-01    0.614E-01
RMM:   4    -0.232278688083E+04    0.24609E-02   -0.86947E-03  5752   0.377E-02    0.186E-01
RMM:   5    -0.232278654409E+04    0.33674E-03   -0.95700E-04  4661   0.164E-02    0.119E-01
RMM:   6    -0.232278652044E+04    0.23654E-04   -0.70628E-04  4902   0.184E-02    0.119E-01
RMM:   7    -0.232278636205E+04    0.15839E-03   -0.26840E-04  4238   0.120E-02    0.472E-02
RMM:   8    -0.232278634681E+04    0.15239E-04   -0.46950E-05  3054   0.547E-03    0.153E-02
RMM:   9    -0.232278634744E+04   -0.63154E-06   -0.12570E-05  2877   0.410E-03
  46 F= -.23438214E+04 E0= -.23438214E+04  d E =-.159312E-01  mag=     4.0000
       N       E                     dE             d eps       ncg     rms          rms(c)
DAV:   1    -0.232254087280E+04    0.24547E+00   -0.13765E+01  4488   0.331E+00    0.118E+00
RMM:   2    -0.232279540097E+04   -0.25453E+00   -0.25469E+00  6394   0.808E-01    0.140E+00
RMM:   3    -0.232280419410E+04   -0.87931E-02   -0.27301E-01  6143   0.274E-01    0.963E-01
RMM:   4    -0.232279831416E+04    0.58799E-02   -0.23586E-02  5882   0.620E-02    0.306E-01
RMM:   5    -0.232279734068E+04    0.97348E-03   -0.25954E-03  5207   0.275E-02    0.186E-01
RMM:   6    -0.232279699394E+04    0.34674E-03   -0.16469E-03  5158   0.266E-02    0.130E-01
RMM:   7    -0.232279693349E+04    0.60446E-04   -0.44033E-04  4797   0.166E-02    0.660E-02
RMM:   8    -0.232279688103E+04    0.52462E-04   -0.95716E-05  3230   0.707E-03    0.283E-02
RMM:   9    -0.232279688175E+04   -0.72458E-06   -0.30452E-05  2925   0.522E-03
  47 F= -.23438338E+04 E0= -.23438338E+04  d E =-.283430E-01  mag=     4.0000
       N       E                     dE             d eps       ncg     rms          rms(c)
DAV:   1    -0.232278559971E+04    0.11281E-01   -0.61664E-01  4760   0.697E-01    0.244E-01
RMM:   2    -0.232279650167E+04   -0.10902E-01   -0.11100E-01  6396   0.168E-01    0.238E-01
RMM:   3    -0.232279733523E+04   -0.83356E-03   -0.11808E-02  5621   0.565E-02    0.230E-01
RMM:   4    -0.232279697671E+04    0.35852E-03   -0.11076E-03  3799   0.137E-02    0.660E-02
RMM:   5    -0.232279694068E+04    0.36028E-04   -0.12280E-04  3121   0.697E-03    0.462E-02
RMM:   6    -0.232279693045E+04    0.10232E-04   -0.91945E-05  3299   0.773E-03    0.387E-02
RMM:   7    -0.232279691454E+04    0.15907E-04   -0.36000E-05  2974   0.578E-03    0.155E-02
RMM:   8    -0.232279691465E+04   -0.11391E-06   -0.75472E-06  2848   0.373E-03
  48 F= -.23438342E+04 E0= -.23438342E+04  d E =-.287551E-01  mag=     4.0000
       N       E                     dE             d eps       ncg     rms          rms(c)
DAV:   1    -0.232270229537E+04    0.94619E-01   -0.51385E+00  4496   0.195E+00    0.737E-01
RMM:   2    -0.232280509921E+04   -0.10280E+00   -0.10502E+00  6415   0.499E-01    0.661E-01
RMM:   3    -0.232281374957E+04   -0.86504E-02   -0.11826E-01  6099   0.177E-01    0.649E-01
RMM:   4    -0.232281099903E+04    0.27505E-02   -0.10195E-02  5796   0.395E-02    0.208E-01
RMM:   5    -0.232281062390E+04    0.37513E-03   -0.11715E-03  4596   0.165E-02    0.136E-01
RMM:   6    -0.232281054533E+04    0.78566E-04   -0.77209E-04  4893   0.178E-02    0.124E-01
RMM:   7    -0.232281037713E+04    0.16821E-03   -0.33842E-04  4494   0.124E-02    0.548E-02
RMM:   8    -0.232281036390E+04    0.13224E-04   -0.61347E-05  3231   0.652E-03    0.183E-02
RMM:   9    -0.232281036718E+04   -0.32708E-05   -0.14011E-05  2921   0.426E-03
  49 F= -.23438492E+04 E0= -.23438492E+04  d E =-.149703E-01  mag=     4.0000
       N       E                     dE             d eps       ncg     rms          rms(c)
DAV:   1    -0.232190293764E+04    0.90743E+00   -0.41517E+01  4496   0.557E+00    0.218E+00
RMM:   2    -0.232281391284E+04   -0.91098E+00   -0.90807E+00  6452   0.148E+00    0.265E+00
RMM:   3    -0.232283038304E+04   -0.16470E-01   -0.97297E-01  6141   0.507E-01    0.161E+00
RMM:   4    -0.232281432084E+04    0.16062E-01   -0.80284E-02  5956   0.110E-01    0.574E-01
RMM:   5    -0.232281167138E+04    0.26495E-02   -0.86919E-03  5539   0.538E-02    0.401E-01
RMM:   6    -0.232281034422E+04    0.13272E-02   -0.61893E-03  5680   0.434E-02    0.309E-01
RMM:   7    -0.232280932004E+04    0.10242E-02   -0.25387E-03  5601   0.351E-02    0.158E-01
RMM:   8    -0.232280922852E+04    0.91521E-04   -0.56097E-04  4742   0.138E-02    0.549E-02
RMM:   9    -0.232280924703E+04   -0.18510E-04   -0.10246E-04  3143   0.985E-03    0.267E-02
RMM:  10    -0.232280928142E+04   -0.34393E-04   -0.49995E-05  3239   0.491E-03    0.175E-02
RMM:  11    -0.232280929788E+04   -0.16458E-04   -0.11819E-05  2884   0.418E-03    0.102E-02
RMM:  12    -0.232280931219E+04   -0.14303E-04   -0.62747E-06  2860   0.258E-03    0.501E-03
RMM:  13    -0.232280932748E+04   -0.15297E-04   -0.47395E-06  2839   0.252E-03    0.367E-03
RMM:  14    -0.232280933303E+04   -0.55453E-05   -0.25162E-06  2717   0.210E-03
  50 F= -.23438522E+04 E0= -.23438522E+04  d E =-.180040E-01  mag=     4.0000
       N       E                     dE             d eps       ncg     rms          rms(c)
DAV:   1    -0.232264400505E+04    0.16532E+00   -0.81376E+00  4496   0.247E+00    0.918E-01
RMM:   2    -0.232280418116E+04   -0.16018E+00   -0.16673E+00  6442   0.642E-01    0.526E-01
RMM:   3    -0.232281858267E+04   -0.14402E-01   -0.19753E-01  6135   0.224E-01    0.431E-01
RMM:   4    -0.232281851196E+04    0.70715E-04   -0.16506E-02  5979   0.469E-02    0.379E-01
RMM:   5    -0.232281753236E+04    0.97960E-03   -0.16073E-03  4786   0.194E-02    0.198E-01
RMM:   6    -0.232281716940E+04    0.36296E-03   -0.14403E-03  5269   0.214E-02    0.130E-01
RMM:   7    -0.232281699813E+04    0.17127E-03   -0.53425E-04  4935   0.143E-02    0.650E-02
RMM:   8    -0.232281696437E+04    0.33760E-04   -0.14989E-04  3816   0.858E-03    0.272E-02
RMM:   9    -0.232281696716E+04   -0.27807E-05   -0.31785E-05  2916   0.577E-03
  51 F= -.23438581E+04 E0= -.23438581E+04  d E =-.238832E-01  mag=     4.0000
       N       E                     dE             d eps       ncg     rms          rms(c)
DAV:   1    -0.232267655850E+04    0.14041E+00   -0.74890E+00  4488   0.230E+00    0.867E-01
RMM:   2    -0.232281994696E+04   -0.14339E+00   -0.14782E+00  6438   0.582E-01    0.634E-01
RMM:   3    -0.232283395481E+04   -0.14008E-01   -0.17185E-01  6121   0.205E-01    0.668E-01
RMM:   4    -0.232283166539E+04    0.22894E-02   -0.14456E-02  5873   0.442E-02    0.273E-01
RMM:   5    -0.232283103386E+04    0.63154E-03   -0.13891E-03  4761   0.196E-02    0.160E-01
RMM:   6    -0.232283072409E+04    0.30976E-03   -0.11082E-03  5034   0.192E-02    0.100E-01
RMM:   7    -0.232283066699E+04    0.57105E-04   -0.25436E-04  4072   0.137E-02    0.288E-02
RMM:   8    -0.232283066453E+04    0.24633E-05   -0.40831E-05  2985   0.484E-03
  52 F= -.23438733E+04 E0= -.23438733E+04  d E =-.151781E-01  mag=     4.0000
       N       E                     dE             d eps       ncg     rms          rms(c)
DAV:   1    -0.232264667063E+04    0.18400E+00   -0.90347E+00  4496   0.252E+00    0.956E-01
RMM:   2    -0.232282067374E+04   -0.17400E+00   -0.17938E+00  6439   0.641E-01    0.717E-01
RMM:   3    -0.232283727539E+04   -0.16602E-01   -0.20869E-01  6114   0.227E-01    0.741E-01
RMM:   4    -0.232283444640E+04    0.28290E-02   -0.17477E-02  5913   0.490E-02    0.300E-01
RMM:   5    -0.232283370624E+04    0.74017E-03   -0.17686E-03  4839   0.219E-02    0.179E-01
RMM:   6    -0.232283335346E+04    0.35278E-03   -0.13718E-03  4957   0.207E-02    0.114E-01
RMM:   7    -0.232283332128E+04    0.32172E-04   -0.42291E-04  4160   0.180E-02    0.763E-02
RMM:   8    -0.232283326462E+04    0.56665E-04   -0.11079E-04  3206   0.750E-03    0.254E-02
RMM:   9    -0.232283326760E+04   -0.29801E-05   -0.24039E-05  2919   0.465E-03
  53 F= -.23438774E+04 E0= -.23438774E+04  d E =-.193286E-01  mag=     4.0000
       N       E                     dE             d eps       ncg     rms          rms(c)
DAV:   1    -0.232262942677E+04    0.20384E+00   -0.11267E+01  4488   0.293E+00    0.104E+00
RMM:   2    -0.232283132535E+04   -0.20190E+00   -0.20916E+00  6426   0.732E-01    0.700E-01
RMM:   3    -0.232285040493E+04   -0.19080E-01   -0.23131E-01  6147   0.246E-01    0.757E-01
RMM:   4    -0.232284733865E+04    0.30663E-02   -0.19611E-02  5989   0.531E-02    0.328E-01
RMM:   5    -0.232284649738E+04    0.84127E-03   -0.22167E-03  4844   0.231E-02    0.205E-01
RMM:   6    -0.232284638765E+04    0.10972E-03   -0.16349E-03  5314   0.246E-02    0.191E-01
RMM:   7    -0.232284602920E+04    0.35845E-03   -0.79947E-04  5087   0.180E-02    0.876E-02
RMM:   8    -0.232284597876E+04    0.50443E-04   -0.15565E-04  3754   0.846E-03    0.312E-02
RMM:   9    -0.232284597362E+04    0.51399E-05   -0.32064E-05  2978   0.534E-03
  54 F= -.23438921E+04 E0= -.23438921E+04  d E =-.146389E-01  mag=     4.0000
       N       E                     dE             d eps       ncg     rms          rms(c)
DAV:   1    -0.232267492154E+04    0.17106E+00   -0.90275E+00  4488   0.262E+00    0.924E-01
RMM:   2    -0.232283608401E+04   -0.16116E+00   -0.16711E+00  6409   0.653E-01    0.602E-01
RMM:   3    -0.232285126188E+04   -0.15178E-01   -0.18410E-01  6148   0.220E-01    0.641E-01
RMM:   4    -0.232284920824E+04    0.20536E-02   -0.15643E-02  5908   0.469E-02    0.296E-01
RMM:   5    -0.232284852909E+04    0.67914E-03   -0.17231E-03  4723   0.207E-02    0.186E-01
RMM:   6    -0.232284843461E+04    0.94489E-04   -0.13043E-03  5201   0.221E-02    0.171E-01
RMM:   7    -0.232284813851E+04    0.29609E-03   -0.64880E-04  5003   0.164E-02    0.778E-02
RMM:   8    -0.232284809955E+04    0.38967E-04   -0.12034E-04  3579   0.775E-03    0.280E-02
RMM:   9    -0.232284809542E+04    0.41227E-05   -0.26114E-05  2953   0.509E-03
  55 F= -.23438958E+04 E0= -.23438958E+04  d E =-.183987E-01  mag=     4.0000
       N       E                     dE             d eps       ncg     rms          rms(c)
DAV:   1    -0.232267236710E+04    0.17573E+00   -0.12171E+01  4472   0.310E+00    0.102E+00
RMM:   2    -0.232285222122E+04   -0.17985E+00   -0.18770E+00  6338   0.736E-01    0.625E-01
RMM:   3    -0.232286875173E+04   -0.16531E-01   -0.19932E-01  6081   0.238E-01    0.714E-01
RMM:   4    -0.232286589092E+04    0.28608E-02   -0.17142E-02  6082   0.521E-02    0.340E-01
RMM:   5    -0.232286498226E+04    0.90866E-03   -0.23635E-03  5011   0.256E-02    0.213E-01
RMM:   6    -0.232286483611E+04    0.14615E-03   -0.18698E-03  5460   0.269E-02    0.184E-01
RMM:   7    -0.232286449351E+04    0.34260E-03   -0.79761E-04  5214   0.193E-02    0.824E-02
RMM:   8    -0.232286443621E+04    0.57300E-04   -0.14102E-04  3824   0.821E-03    0.347E-02
RMM:   9    -0.232286441944E+04    0.16773E-04   -0.36983E-05  3068   0.539E-03    0.158E-02
RMM:  10    -0.232286441594E+04    0.34954E-05   -0.19524E-05  2912   0.374E-03
  56 F= -.23439130E+04 E0= -.23439130E+04  d E =-.172213E-01  mag=     4.0000
       N       E                     dE             d eps       ncg     rms          rms(c)
DAV:   1    -0.232283584391E+04    0.28576E-01   -0.19105E+00  4512   0.123E+00    0.402E-01
RMM:   2    -0.232286405103E+04   -0.28207E-01   -0.29448E-01  6366   0.292E-01    0.237E-01
RMM:   3    -0.232286647658E+04   -0.24256E-02   -0.29089E-02  5927   0.903E-02    0.271E-01
RMM:   4    -0.232286608221E+04    0.39438E-03   -0.26973E-03  4853   0.204E-02    0.132E-01
RMM:   5    -0.232286593588E+04    0.14632E-03   -0.35693E-04  4084   0.114E-02    0.805E-02
RMM:   6    -0.232286591061E+04    0.25279E-04   -0.29317E-04  4411   0.116E-02    0.662E-02
RMM:   7    -0.232286586043E+04    0.50173E-04   -0.95230E-05  3521   0.796E-03    0.280E-02
RMM:   8    -0.232286585368E+04    0.67493E-05   -0.16845E-05  2943   0.448E-03
  57 F= -.23439148E+04 E0= -.23439148E+04  d E =-.189834E-01  mag=     4.0000
       N       E                     dE             d eps       ncg     rms          rms(c)
DAV:   1    -0.232271692972E+04    0.14893E+00   -0.13432E+01  4456   0.327E+00    0.102E+00
RMM:   2    -0.232287298574E+04   -0.15606E+00   -0.16408E+00  6335   0.751E-01    0.680E-01
RMM:   3    -0.232288767926E+04   -0.14694E-01   -0.16627E-01  6089   0.229E-01    0.884E-01
RMM:   4    -0.232288195004E+04    0.57292E-02   -0.14895E-02  6038   0.543E-02    0.319E-01
RMM:   5    -0.232288122268E+04    0.72736E-03   -0.31723E-03  5307   0.305E-02    0.209E-01
RMM:   6    -0.232288106127E+04    0.16141E-03   -0.19536E-03  5591   0.281E-02    0.170E-01
RMM:   7    -0.232288073996E+04    0.32130E-03   -0.59356E-04  5010   0.180E-02    0.598E-02
RMM:   8    -0.232288070286E+04    0.37101E-04   -0.91435E-05  3427   0.690E-03    0.228E-02
RMM:   9    -0.232288069312E+04    0.97464E-05   -0.29084E-05  2991   0.481E-03
  58 F= -.23439301E+04 E0= -.23439301E+04  d E =-.152573E-01  mag=     4.0000
       N       E                     dE             d eps       ncg     rms          rms(c)
DAV:   1    -0.232287455862E+04    0.61442E-02   -0.53747E-01  4656   0.655E-01    0.206E-01
RMM:   2    -0.232288084685E+04   -0.62882E-02   -0.65816E-02  6340   0.151E-01    0.152E-01
RMM:   3    -0.232288141363E+04   -0.56678E-03   -0.64133E-03  5548   0.457E-02    0.190E-01
RMM:   4    -0.232288114583E+04    0.26780E-03   -0.60429E-04  3494   0.114E-02    0.619E-02
RMM:   5    -0.232288111347E+04    0.32358E-04   -0.13413E-04  3305   0.788E-03    0.392E-02
RMM:   6    -0.232288111061E+04    0.28562E-05   -0.86601E-05  3387   0.753E-03
  59 F= -.23439305E+04 E0= -.23439305E+04  d E =-.157443E-01  mag=     4.0000
       N       E                     dE             d eps       ncg     rms          rms(c)
DAV:   1    -0.232280577588E+04    0.75338E-01   -0.83124E+00  4456   0.255E+00    0.760E-01
RMM:   2    -0.232289016904E+04   -0.84393E-01   -0.86779E-01  6335   0.566E-01    0.708E-01
RMM:   3    -0.232289573218E+04   -0.55631E-02   -0.80621E-02  6102   0.165E-01    0.745E-01
RMM:   4    -0.232289132720E+04    0.44050E-02   -0.76750E-03  5725   0.429E-02    0.222E-01
RMM:   5    -0.232289093741E+04    0.38979E-03   -0.21379E-03  5291   0.268E-02    0.150E-01
RMM:   6    -0.232289084454E+04    0.92878E-04   -0.11454E-03  5381   0.219E-02    0.112E-01
RMM:   7    -0.232289069376E+04    0.15078E-03   -0.24509E-04  4136   0.124E-02    0.345E-02
RMM:   8    -0.232289068098E+04    0.12776E-04   -0.45901E-05  3119   0.520E-03    0.164E-02
RMM:   9    -0.232289067608E+04    0.48999E-05   -0.12466E-05  2933   0.352E-03
  60 F= -.23439407E+04 E0= -.23439407E+04  d E =-.101555E-01  mag=     4.0000
       N       E                     dE             d eps       ncg     rms          rms(c)
DAV:   1    -0.232288498440E+04    0.56966E-02   -0.57653E-01  4496   0.675E-01    0.204E-01
RMM:   2    -0.232289101008E+04   -0.60257E-02   -0.61193E-02  6347   0.152E-01    0.213E-01
RMM:   3    -0.232289128211E+04   -0.27203E-03   -0.56346E-03  5574   0.438E-02    0.191E-01
RMM:   4    -0.232289099574E+04    0.28637E-03   -0.54217E-04  3776   0.116E-02    0.587E-02
RMM:   5    -0.232289096095E+04    0.34790E-04   -0.14015E-04  3589   0.824E-03    0.370E-02
RMM:   6    -0.232289095967E+04    0.12792E-05   -0.81944E-05  3319   0.716E-03
  61 F= -.23439411E+04 E0= -.23439411E+04  d E =-.105861E-01  mag=     4.0000
       N       E                     dE             d eps       ncg     rms          rms(c)
DAV:   1    -0.232280924990E+04    0.81711E-01   -0.77399E+00  4456   0.255E+00    0.765E-01
RMM:   2    -0.232290085879E+04   -0.91609E-01   -0.92419E-01  6342   0.587E-01    0.854E-01
RMM:   3    -0.232290396295E+04   -0.31042E-02   -0.85835E-02  6120   0.167E-01    0.695E-01
RMM:   4    -0.232290017658E+04    0.37864E-02   -0.78043E-03  5631   0.427E-02    0.211E-01
RMM:   5    -0.232289968316E+04    0.49342E-03   -0.18719E-03  5347   0.254E-02    0.136E-01
RMM:   6    -0.232289961830E+04    0.64856E-04   -0.10672E-03  5338   0.232E-02    0.110E-01
RMM:   7    -0.232289947766E+04    0.14064E-03   -0.26463E-04  4255   0.123E-02    0.379E-02
RMM:   8    -0.232289945803E+04    0.19628E-04   -0.39226E-05  3084   0.514E-03    0.164E-02
RMM:   9    -0.232289945332E+04    0.47119E-05   -0.12615E-05  2920   0.348E-03
  62 F= -.23439500E+04 E0= -.23439500E+04  d E =-.882558E-02  mag=     4.0000
       N       E                     dE             d eps       ncg     rms          rms(c)
DAV:   1    -0.232288792718E+04    0.11531E-01   -0.10349E+00  4464   0.929E-01    0.281E-01
RMM:   2    -0.232290031626E+04   -0.12389E-01   -0.12330E-01  6359   0.216E-01    0.346E-01
RMM:   3    -0.232290041370E+04   -0.97436E-04   -0.11312E-02  5817   0.613E-02    0.233E-01
RMM:   4    -0.232289999554E+04    0.41816E-03   -0.10343E-03  4567   0.155E-02    0.766E-02
RMM:   5    -0.232289991860E+04    0.76937E-04   -0.23985E-04  4280   0.101E-02    0.452E-02
RMM:   6    -0.232289991080E+04    0.77954E-05   -0.13176E-04  3872   0.911E-03    0.330E-02
RMM:   7    -0.232289989914E+04    0.11664E-04   -0.31647E-05  2961   0.581E-03    0.153E-02
RMM:   8    -0.232289989612E+04    0.30148E-05   -0.68712E-06  2849   0.325E-03
  63 F= -.23439505E+04 E0= -.23439505E+04  d E =-.938120E-02  mag=     4.0000
       N       E                     dE             d eps       ncg     rms          rms(c)
DAV:   1    -0.232285436397E+04    0.45535E-01   -0.40107E+00  4456   0.183E+00    0.548E-01
RMM:   2    -0.232290887813E+04   -0.54514E-01   -0.53710E-01  6460   0.447E-01    0.719E-01
RMM:   3    -0.232290906716E+04   -0.18903E-03   -0.50541E-02  6153   0.124E-01    0.445E-01
RMM:   4    -0.232290760084E+04    0.14663E-02   -0.43752E-03  5387   0.302E-02    0.150E-01
RMM:   5    -0.232290737119E+04    0.22965E-03   -0.80560E-04  5045   0.168E-02    0.113E-01
RMM:   6    -0.232290728620E+04    0.84990E-04   -0.60395E-04  4965   0.169E-02    0.840E-02
RMM:   7    -0.232290720945E+04    0.76758E-04   -0.14934E-04  3793   0.917E-03    0.228E-02
RMM:   8    -0.232290720320E+04    0.62500E-05   -0.21706E-05  2963   0.493E-03
  64 F= -.23439582E+04 E0= -.23439582E+04  d E =-.773109E-02  mag=     4.0000
       N       E                     dE             d eps       ncg     rms          rms(c)
DAV:   1    -0.232271897580E+04    0.18823E+00   -0.14512E+01  4456   0.349E+00    0.104E+00
RMM:   2    -0.232291510924E+04   -0.19613E+00   -0.19536E+00  6473   0.851E-01    0.127E+00
RMM:   3    -0.232292051969E+04   -0.54105E-02   -0.19166E-01  6241   0.241E-01    0.937E-01
RMM:   4    -0.232291368392E+04    0.68358E-02   -0.16048E-02  5768   0.592E-02    0.288E-01
RMM:   5    -0.232291289636E+04    0.78756E-03   -0.31650E-03  5472   0.315E-02    0.219E-01
RMM:   6    -0.232291255144E+04    0.34493E-03   -0.21561E-03  5339   0.315E-02    0.162E-01
RMM:   7    -0.232291226976E+04    0.28168E-03   -0.61606E-04  5036   0.170E-02    0.459E-02
RMM:   8    -0.232291224516E+04    0.24598E-04   -0.88267E-05  3305   0.767E-03    0.245E-02
RMM:   9    -0.232291223659E+04    0.85722E-05   -0.26694E-05  3013   0.440E-03
  65 F= -.23439640E+04 E0= -.23439640E+04  d E =-.135304E-01  mag=     4.0000
       N       E                     dE             d eps       ncg     rms          rms(c)
DAV:   1    -0.232283397987E+04    0.78265E-01   -0.64720E+00  4456   0.231E+00    0.705E-01
RMM:   2    -0.232292112920E+04   -0.87149E-01   -0.87729E-01  6424   0.575E-01    0.774E-01
RMM:   3    -0.232292486472E+04   -0.37355E-02   -0.86426E-02  6201   0.165E-01    0.678E-01
RMM:   4    -0.232292127722E+04    0.35875E-02   -0.73732E-03  5751   0.407E-02    0.196E-01
RMM:   5    -0.232292088003E+04    0.39719E-03   -0.14962E-03  5127   0.216E-02    0.138E-01
RMM:   6    -0.232292077974E+04    0.10029E-03   -0.10303E-03  5080   0.228E-02    0.111E-01
RMM:   7    -0.232292064030E+04    0.13944E-03   -0.27154E-04  4407   0.121E-02    0.306E-02
RMM:   8    -0.232292063455E+04    0.57554E-05   -0.34351E-05  3024   0.579E-03
  66 F= -.23439731E+04 E0= -.23439731E+04  d E =-.901187E-02  mag=     4.0000
       N       E                     dE             d eps       ncg     rms          rms(c)
DAV:   1    -0.232287645152E+04    0.44189E-01   -0.33734E+00  4456   0.167E+00    0.513E-01
RMM:   2    -0.232292204412E+04   -0.45593E-01   -0.45746E-01  6423   0.415E-01    0.581E-01
RMM:   3    -0.232292361814E+04   -0.15740E-02   -0.44281E-02  6108   0.119E-01    0.480E-01
RMM:   4    -0.232292185810E+04    0.17600E-02   -0.38603E-03  5541   0.293E-02    0.141E-01
RMM:   5    -0.232292165139E+04    0.20672E-03   -0.74459E-04  4856   0.159E-02    0.997E-02
RMM:   6    -0.232292159631E+04    0.55075E-04   -0.52883E-04  4861   0.166E-02    0.794E-02
RMM:   7    -0.232292152835E+04    0.67964E-04   -0.13778E-04  3821   0.919E-03    0.239E-02
RMM:   8    -0.232292152531E+04    0.30355E-05   -0.19938E-05  2948   0.488E-03
  67 F= -.23439744E+04 E0= -.23439744E+04  d E =-.103392E-01  mag=     4.0000
       N       E                     dE             d eps       ncg     rms          rms(c)
DAV:   1    -0.232282611414E+04    0.95414E-01   -0.76008E+00  4488   0.247E+00    0.751E-01
RMM:   2    -0.232292620171E+04   -0.10009E+00   -0.10364E+00  6451   0.616E-01    0.612E-01
RMM:   3    -0.232293339045E+04   -0.71887E-02   -0.98738E-02  6186   0.175E-01    0.760E-01
RMM:   4    -0.232292910218E+04    0.42883E-02   -0.92991E-03  5851   0.434E-02    0.222E-01
RMM:   5    -0.232292867665E+04    0.42553E-03   -0.17165E-03  5164   0.217E-02    0.162E-01
RMM:   6    -0.232292848554E+04    0.19112E-03   -0.11782E-03  4922   0.238E-02    0.116E-01
RMM:   7    -0.232292834418E+04    0.14136E-03   -0.37176E-04  4483   0.129E-02    0.322E-02
RMM:   8    -0.232292833992E+04    0.42649E-05   -0.41841E-05  3036   0.718E-03
  68 F= -.23439819E+04 E0= -.23439819E+04  d E =-.750616E-02  mag=     4.0000
       N       E                     dE             d eps       ncg     rms          rms(c)
DAV:   1    -0.232285965612E+04    0.68688E-01   -0.50361E+00  4472   0.201E+00    0.615E-01
RMM:   2    -0.232292719251E+04   -0.67536E-01   -0.69834E-01  6456   0.502E-01    0.512E-01
RMM:   3    -0.232293208281E+04   -0.48903E-02   -0.67246E-02  6168   0.142E-01    0.623E-01
RMM:   4    -0.232292920863E+04    0.28742E-02   -0.60977E-03  5740   0.352E-02    0.181E-01
RMM:   5    -0.232292892360E+04    0.28502E-03   -0.11395E-03  5012   0.178E-02    0.132E-01
RMM:   6    -0.232292879960E+04    0.12400E-03   -0.79458E-04  4816   0.196E-02    0.941E-02
RMM:   7    -0.232292870857E+04    0.91027E-04   -0.23937E-04  4216   0.107E-02    0.281E-02
RMM:   8    -0.232292870498E+04    0.35877E-05   -0.29305E-05  2978   0.611E-03
  69 F= -.23439828E+04 E0= -.23439828E+04  d E =-.842461E-02  mag=     4.0000
       N       E                     dE             d eps       ncg     rms          rms(c)
DAV:   1    -0.232281639669E+04    0.11231E+00   -0.76893E+00  4488   0.249E+00    0.769E-01
RMM:   2    -0.232293026912E+04   -0.11387E+00   -0.12035E+00  6442   0.650E-01    0.450E-01
RMM:   3    -0.232293682898E+04   -0.65599E-02   -0.10706E-01  6129   0.187E-01    0.501E-01
RMM:   4    -0.232293562098E+04    0.12080E-02   -0.10057E-02  5950   0.402E-02    0.282E-01
RMM:   5    -0.232293505421E+04    0.56677E-03   -0.15372E-03  5150   0.203E-02    0.196E-01
RMM:   6    -0.232293466934E+04    0.38487E-03   -0.13310E-03  4965   0.241E-02    0.107E-01
RMM:   7    -0.232293456171E+04    0.10763E-03   -0.40070E-04  4461   0.126E-02    0.300E-02
RMM:   8    -0.232293456078E+04    0.92744E-06   -0.36733E-05  2990   0.740E-03
  70 F= -.23439893E+04 E0= -.23439893E+04  d E =-.649338E-02  mag=     4.0000
       N       E                     dE             d eps       ncg     rms          rms(c)
DAV:   1    -0.232292416851E+04    0.10393E-01   -0.68206E-01  4656   0.743E-01    0.230E-01
RMM:   2    -0.232293426326E+04   -0.10095E-01   -0.10651E-01  6449   0.193E-01    0.143E-01
RMM:   3    -0.232293485073E+04   -0.58748E-03   -0.91326E-03  5542   0.540E-02    0.169E-01
RMM:   4    -0.232293469129E+04    0.15944E-03   -0.89623E-04  3583   0.125E-02    0.791E-02
RMM:   5    -0.232293464469E+04    0.46600E-04   -0.15055E-04  3432   0.775E-03    0.568E-02
RMM:   6    -0.232293461565E+04    0.29042E-04   -0.13288E-04  3444   0.871E-03    0.313E-02
RMM:   7    -0.232293460923E+04    0.64155E-05   -0.33183E-05  3063   0.513E-03
  71 F= -.23439895E+04 E0= -.23439895E+04  d E =-.672716E-02  mag=     4.0000
       N       E                     dE             d eps       ncg     rms          rms(c)
DAV:   1    -0.232288079528E+04    0.53820E-01   -0.40685E+00  4472   0.184E+00    0.582E-01
RMM:   2    -0.232293833777E+04   -0.57542E-01   -0.61198E-01  6364   0.470E-01    0.339E-01
RMM:   3    -0.232294177609E+04   -0.34383E-02   -0.54596E-02  6079   0.137E-01    0.348E-01
RMM:   4    -0.232294131190E+04    0.46419E-03   -0.51426E-03  5675   0.298E-02    0.223E-01
RMM:   5    -0.232294100077E+04    0.31113E-03   -0.96510E-04  5247   0.179E-02    0.157E-01
RMM:   6    -0.232294075057E+04    0.25020E-03   -0.74213E-04  4967   0.185E-02    0.744E-02
RMM:   7    -0.232294070382E+04    0.46752E-04   -0.18301E-04  4090   0.956E-03    0.309E-02
RMM:   8    -0.232294069792E+04    0.59048E-05   -0.22938E-05  2922   0.560E-03
  72 F= -.23439958E+04 E0= -.23439958E+04  d E =-.622493E-02  mag=     4.0000
       N       E                     dE             d eps       ncg     rms          rms(c)
DAV:   1    -0.232292619209E+04    0.14512E-01   -0.10174E+00  4512   0.923E-01    0.292E-01
RMM:   2    -0.232294059007E+04   -0.14398E-01   -0.15305E-01  6370   0.235E-01    0.172E-01
RMM:   3    -0.232294148350E+04   -0.89344E-03   -0.13569E-02  5817   0.677E-02    0.192E-01
RMM:   4    -0.232294131255E+04    0.17096E-03   -0.12921E-03  3995   0.153E-02    0.107E-01
RMM:   5    -0.232294123716E+04    0.75386E-04   -0.25241E-04  4008   0.103E-02    0.757E-02
RMM:   6    -0.232294117940E+04    0.57762E-04   -0.20578E-04  3944   0.106E-02    0.372E-02
RMM:   7    -0.232294116827E+04    0.11133E-04   -0.47854E-05  3166   0.583E-03    0.156E-02
RMM:   8    -0.232294116712E+04    0.11520E-05   -0.82737E-06  2888   0.381E-03
  73 F= -.23439963E+04 E0= -.23439963E+04  d E =-.675954E-02  mag=     4.0000
       N       E                     dE             d eps       ncg     rms          rms(c)
DAV:   1    -0.232290733495E+04    0.33833E-01   -0.26118E+00  4456   0.146E+00    0.456E-01
RMM:   2    -0.232294529243E+04   -0.37957E-01   -0.39679E-01  6400   0.370E-01    0.348E-01
RMM:   3    -0.232294778331E+04   -0.24909E-02   -0.36606E-02  6043   0.107E-01    0.390E-01
RMM:   4    -0.232294681421E+04    0.96909E-03   -0.34185E-03  5270   0.251E-02    0.159E-01
RMM:   5    -0.232294666789E+04    0.14633E-03   -0.58249E-04  4526   0.136E-02    0.123E-01
RMM:   6    -0.232294647944E+04    0.18844E-03   -0.51790E-04  4682   0.149E-02    0.507E-02
RMM:   7    -0.232294646244E+04    0.17007E-04   -0.11425E-04  3618   0.783E-03    0.225E-02
RMM:   8    -0.232294645971E+04    0.27269E-05   -0.14857E-05  2908   0.484E-03
  74 F= -.23440017E+04 E0= -.23440017E+04  d E =-.545085E-02  mag=     4.0000
       N       E                     dE             d eps       ncg     rms          rms(c)
DAV:   1    -0.232282766045E+04    0.11880E+00   -0.81376E+00  4456   0.257E+00    0.803E-01
RMM:   2    -0.232294615576E+04   -0.11850E+00   -0.12385E+00  6398   0.652E-01    0.617E-01
[...]
 165 F= -.23440828E+04 E0= -.23440828E+04  d E =-.323904E-03  mag=     4.0000
       N       E                     dE             d eps       ncg     rms          rms(c)
DAV:   1    -0.232299320127E+04    0.13028E-02   -0.16918E-01  4492   0.386E-01    0.135E-01
RMM:   2    -0.232299479448E+04   -0.15932E-02   -0.15848E-02  6168   0.799E-02    0.135E-01
RMM:   3    -0.232299484899E+04   -0.54508E-04   -0.15458E-03  4595   0.267E-02    0.127E-01
RMM:   4    -0.232299471529E+04    0.13370E-03   -0.16751E-04  3182   0.850E-03    0.356E-02
RMM:   5    -0.232299471031E+04    0.49769E-05   -0.65341E-05  3171   0.669E-03
 166 F= -.23440831E+04 E0= -.23440831E+04  d E =-.317503E-03  mag=     4.0000
       N       E                     dE             d eps       ncg     rms          rms(c)
DAV:   1    -0.232299461175E+04    0.10354E-03   -0.61102E-03  5256   0.748E-02    0.296E-02
RMM:   2    -0.232299467639E+04   -0.64641E-04   -0.63205E-04  5461   0.169E-02    0.288E-02
RMM:   3    -0.232299467126E+04    0.51243E-05   -0.72259E-05  3004   0.832E-03
 167 F= -.23440831E+04 E0= -.23440831E+04  d E =-.298671E-03  mag=     4.0000
       N       E                     dE             d eps       ncg     rms          rms(c)
DAV:   1    -0.232299323826E+04    0.14381E-02   -0.17339E-01  4492   0.388E-01    0.130E-01
RMM:   2    -0.232299486521E+04   -0.16269E-02   -0.16588E-02  6140   0.823E-02    0.109E-01
RMM:   3    -0.232299496221E+04   -0.97003E-04   -0.15461E-03  4623   0.268E-02    0.123E-01
RMM:   4    -0.232299484574E+04    0.11647E-03   -0.17291E-04  3094   0.825E-03    0.408E-02
RMM:   5    -0.232299484012E+04    0.56248E-05   -0.63184E-05  3107   0.659E-03
 168 F= -.23440833E+04 E0= -.23440833E+04  d E =-.266649E-03  mag=     4.0000
       N       E                     dE             d eps       ncg     rms          rms(c)
DAV:   1    -0.232299477935E+04    0.66387E-04   -0.26011E-03  5392   0.494E-02    0.212E-02
RMM:   2    -0.232299481002E+04   -0.30671E-04   -0.29126E-04  4563   0.116E-02    0.227E-02
RMM:   3    -0.232299480557E+04    0.44559E-05   -0.33707E-05  2928   0.621E-03
 169 F= -.23440833E+04 E0= -.23440833E+04  d E =-.244548E-03  mag=     4.0000
       N       E                     dE             d eps       ncg     rms          rms(c)
DAV:   1    -0.232299342704E+04    0.13830E-02   -0.17232E-01  4492   0.388E-01    0.129E-01
RMM:   2    -0.232299506741E+04   -0.16404E-02   -0.16863E-02  6182   0.849E-02    0.103E-01
RMM:   3    -0.232299517378E+04   -0.10636E-03   -0.15532E-03  4614   0.272E-02    0.123E-01
RMM:   4    -0.232299505790E+04    0.11588E-03   -0.17373E-04  3099   0.830E-03    0.404E-02
RMM:   5    -0.232299505208E+04    0.58209E-05   -0.62122E-05  3093   0.659E-03
 170 F= -.23440836E+04 E0= -.23440836E+04  d E =-.293156E-03  mag=     4.0000
       N       E                     dE             d eps       ncg     rms          rms(c)
DAV:   1    -0.232299498341E+04    0.74487E-04   -0.37414E-03  5320   0.588E-02    0.243E-02
RMM:   2    -0.232299502699E+04   -0.43578E-04   -0.41842E-04  4942   0.140E-02    0.256E-02
RMM:   3    -0.232299502218E+04    0.48051E-05   -0.49271E-05  3013   0.753E-03
 171 F= -.23440836E+04 E0= -.23440836E+04  d E =-.270347E-03  mag=     4.0000
       N       E                     dE             d eps       ncg     rms          rms(c)
DAV:   1    -0.232299394623E+04    0.10808E-02   -0.14576E-01  4492   0.352E-01    0.115E-01
RMM:   2    -0.232299532199E+04   -0.13758E-02   -0.14238E-02  6193   0.777E-02    0.818E-02
RMM:   3    -0.232299540558E+04   -0.83592E-04   -0.12859E-03  4377   0.250E-02    0.993E-02
RMM:   4    -0.232299533559E+04    0.69991E-04   -0.14507E-04  3016   0.746E-03    0.411E-02
RMM:   5    -0.232299532872E+04    0.68617E-05   -0.48518E-05  3010   0.573E-03
 172 F= -.23440839E+04 E0= -.23440839E+04  d E =-.291558E-03  mag=     4.0000
       N       E                     dE             d eps       ncg     rms          rms(c)
DAV:   1    -0.232299512873E+04    0.20685E-03   -0.19107E-02  4528   0.128E-01    0.446E-02
RMM:   2    -0.232299532129E+04   -0.19255E-03   -0.19576E-03  5978   0.298E-02    0.398E-02
RMM:   3    -0.232299532648E+04   -0.51900E-05   -0.22567E-04  3075   0.132E-02    0.321E-02
RMM:   4    -0.232299531865E+04    0.78319E-05   -0.20331E-05  2909   0.379E-03
 173 F= -.23440838E+04 E0= -.23440838E+04  d E =-.275909E-03  mag=     4.0000
       N       E                     dE             d eps       ncg     rms          rms(c)
DAV:   1    -0.232299431374E+04    0.10127E-02   -0.13768E-01  4476   0.341E-01    0.116E-01
RMM:   2    -0.232299566081E+04   -0.13471E-02   -0.13541E-02  6207   0.762E-02    0.113E-01
RMM:   3    -0.232299571987E+04   -0.59060E-04   -0.13059E-03  4370   0.246E-02    0.111E-01
RMM:   4    -0.232299562182E+04    0.98052E-04   -0.13120E-04  3064   0.772E-03    0.342E-02
RMM:   5    -0.232299561824E+04    0.35816E-05   -0.52597E-05  3094   0.608E-03
 174 F= -.23440841E+04 E0= -.23440841E+04  d E =-.276552E-03  mag=     4.0000
       N       E                     dE             d eps       ncg     rms          rms(c)
DAV:   1    -0.232299548907E+04    0.13275E-03   -0.11949E-02  4768   0.102E-01    0.366E-02
RMM:   2    -0.232299561108E+04   -0.12201E-03   -0.12389E-03  5687   0.240E-02    0.328E-02
RMM:   3    -0.232299561433E+04   -0.32525E-05   -0.16019E-04  3125   0.128E-02    0.237E-02
RMM:   4    -0.232299560950E+04    0.48257E-05   -0.12021E-05  2895   0.305E-03
 175 F= -.23440841E+04 E0= -.23440841E+04  d E =-.260862E-03  mag=     4.0000
       N       E                     dE             d eps       ncg     rms          rms(c)
DAV:   1    -0.232299456282E+04    0.10515E-02   -0.13230E-01  4476   0.334E-01    0.115E-01
RMM:   2    -0.232299589715E+04   -0.13343E-02   -0.13471E-02  6199   0.753E-02    0.106E-01
RMM:   3    -0.232299597623E+04   -0.79077E-04   -0.13181E-03  4350   0.242E-02    0.112E-01
RMM:   4    -0.232299587681E+04    0.99415E-04   -0.13180E-04  3041   0.769E-03    0.338E-02
RMM:   5    -0.232299587420E+04    0.26132E-05   -0.50780E-05  3071   0.603E-03
 176 F= -.23440844E+04 E0= -.23440844E+04  d E =-.259413E-03  mag=     4.0000
       N       E                     dE             d eps       ncg     rms          rms(c)
DAV:   1    -0.232299578294E+04    0.93871E-04   -0.72320E-03  4792   0.794E-02    0.302E-02
RMM:   2    -0.232299586227E+04   -0.79332E-04   -0.79222E-04  5439   0.190E-02    0.283E-02
RMM:   3    -0.232299586273E+04   -0.46231E-06   -0.10260E-04  3107   0.105E-02    0.181E-02
RMM:   4    -0.232299586028E+04    0.24548E-05   -0.79215E-06  2873   0.251E-03
 177 F= -.23440844E+04 E0= -.23440844E+04  d E =-.244202E-03  mag=     4.0000
       N       E                     dE             d eps       ncg     rms          rms(c)
DAV:   1    -0.232299500350E+04    0.85923E-03   -0.10880E-01  4476   0.300E-01    0.103E-01
RMM:   2    -0.232299606533E+04   -0.10618E-02   -0.10878E-02  6177   0.668E-02    0.858E-02
RMM:   3    -0.232299614608E+04   -0.80752E-04   -0.10993E-03  4065   0.221E-02    0.101E-01
RMM:   4    -0.232299606625E+04    0.79829E-04   -0.10997E-04  2991   0.709E-03    0.313E-02
RMM:   5    -0.232299606262E+04    0.36310E-05   -0.42383E-05  3000   0.541E-03
 178 F= -.23440846E+04 E0= -.23440846E+04  d E =-.240980E-03  mag=     4.0000
       N       E                     dE             d eps       ncg     rms          rms(c)
DAV:   1    -0.232299597508E+04    0.91179E-04   -0.64491E-03  4920   0.742E-02    0.285E-02
RMM:   2    -0.232299604575E+04   -0.70675E-04   -0.70047E-04  5319   0.177E-02    0.277E-02
RMM:   3    -0.232299604461E+04    0.11453E-05   -0.88889E-05  3078   0.967E-03
 179 F= -.23440846E+04 E0= -.23440846E+04  d E =-.232557E-03  mag=     4.0000
       N       E                     dE             d eps       ncg     rms          rms(c)
DAV:   1    -0.232299517645E+04    0.86930E-03   -0.11805E-01  4492   0.311E-01    0.106E-01
RMM:   2    -0.232299621208E+04   -0.10356E-02   -0.10930E-02  6143   0.665E-02    0.583E-02
RMM:   3    -0.232299625336E+04   -0.41272E-04   -0.10343E-03  4176   0.230E-02    0.449E-02
RMM:   4    -0.232299624168E+04    0.11672E-04   -0.10537E-04  3033   0.705E-03    0.360E-02
RMM:   5    -0.232299624193E+04   -0.24632E-06   -0.47285E-05  2912   0.548E-03
 180 F= -.23440848E+04 E0= -.23440848E+04  d E =-.258408E-03  mag=     4.0000
       N       E                     dE             d eps       ncg     rms          rms(c)
DAV:   1    -0.232299610055E+04    0.14113E-03   -0.11030E-02  4680   0.955E-02    0.363E-02
RMM:   2    -0.232299621019E+04   -0.10964E-03   -0.10917E-03  5742   0.216E-02    0.352E-02
RMM:   3    -0.232299620954E+04    0.64692E-06   -0.12841E-04  3026   0.990E-03    0.289E-02
RMM:   4    -0.232299620539E+04    0.41479E-05   -0.15817E-05  2897   0.309E-03
 181 F= -.23440848E+04 E0= -.23440848E+04  d E =-.240789E-03  mag=     4.0000
       N       E                     dE             d eps       ncg     rms          rms(c)
DAV:   1    -0.232299520639E+04    0.10032E-02   -0.12381E-01  4492   0.316E-01    0.106E-01
RMM:   2    -0.232299633088E+04   -0.11245E-02   -0.11755E-02  6177   0.687E-02    0.643E-02
RMM:   3    -0.232299640815E+04   -0.77268E-04   -0.10971E-03  4113   0.228E-02    0.790E-02
RMM:   4    -0.232299636961E+04    0.38538E-04   -0.11646E-04  2968   0.674E-03    0.395E-02
RMM:   5    -0.232299635873E+04    0.10875E-04   -0.39598E-05  2957   0.520E-03    0.241E-02
RMM:   6    -0.232299635499E+04    0.37380E-05   -0.29176E-05  2961   0.529E-03
 182 F= -.23440850E+04 E0= -.23440850E+04  d E =-.209546E-03  mag=     4.0000
       N       E                     dE             d eps       ncg     rms          rms(c)
DAV:   1    -0.232299612918E+04    0.22955E-03   -0.19720E-02  4528   0.126E-01    0.427E-02
RMM:   2    -0.232299631123E+04   -0.18205E-03   -0.19269E-03  6011   0.281E-02    0.217E-02
RMM:   3    -0.232299632002E+04   -0.87907E-05   -0.18503E-04  3036   0.104E-02    0.158E-02
RMM:   4    -0.232299632105E+04   -0.10268E-05   -0.19868E-05  2926   0.345E-03
 183 F= -.23440850E+04 E0= -.23440850E+04  d E =-.199687E-03  mag=     4.0000
       N       E                     dE             d eps       ncg     rms          rms(c)
DAV:   1    -0.232299553888E+04    0.78114E-03   -0.96033E-02  4492   0.276E-01    0.921E-02
RMM:   2    -0.232299648111E+04   -0.94223E-03   -0.98915E-03  6185   0.621E-02    0.497E-02
RMM:   3    -0.232299653186E+04   -0.50745E-04   -0.91143E-04  3774   0.204E-02    0.462E-02
RMM:   4    -0.232299652992E+04    0.19338E-05   -0.92244E-05  2951   0.588E-03
 184 F= -.23440853E+04 E0= -.23440853E+04  d E =-.233940E-03  mag=     4.0000
       N       E                     dE             d eps       ncg     rms          rms(c)
DAV:   1    -0.232299619886E+04    0.33300E-03   -0.30912E-02  4496   0.157E-01    0.573E-02
RMM:   2    -0.232299653969E+04   -0.34083E-03   -0.32682E-03  6116   0.352E-02    0.764E-02
RMM:   3    -0.232299653038E+04    0.93134E-05   -0.35431E-04  3149   0.125E-02    0.480E-02
RMM:   4    -0.232299651152E+04    0.18854E-04   -0.31943E-05  2911   0.434E-03    0.170E-02
RMM:   5    -0.232299650956E+04    0.19699E-05   -0.16568E-05  2906   0.325E-03
 185 F= -.23440853E+04 E0= -.23440853E+04  d E =-.227901E-03  mag=     4.0000
       N       E                     dE             d eps       ncg     rms          rms(c)
DAV:   1    -0.232299570110E+04    0.81042E-03   -0.10596E-01  4488   0.293E-01    0.100E-01
RMM:   2    -0.232299674364E+04   -0.10425E-02   -0.10876E-02  6206   0.664E-02    0.650E-02
RMM:   3    -0.232299681531E+04   -0.71670E-04   -0.10558E-03  4072   0.229E-02    0.775E-02
RMM:   4    -0.232299677262E+04    0.42694E-04   -0.10863E-04  2994   0.678E-03    0.369E-02
RMM:   5    -0.232299676811E+04    0.45070E-05   -0.35897E-05  2952   0.467E-03
 186 F= -.23440855E+04 E0= -.23440855E+04  d E =-.265532E-03  mag=     4.0000
       N       E                     dE             d eps       ncg     rms          rms(c)
DAV:   1    -0.232299655152E+04    0.22110E-03   -0.20297E-02  4528   0.129E-01    0.454E-02
RMM:   2    -0.232299675819E+04   -0.20668E-03   -0.21586E-03  6007   0.300E-02    0.316E-02
RMM:   3    -0.232299677140E+04   -0.13213E-04   -0.24213E-04  3069   0.129E-02    0.297E-02
RMM:   4    -0.232299676341E+04    0.79960E-05   -0.21823E-05  2914   0.404E-03
 187 F= -.23440855E+04 E0= -.23440855E+04  d E =-.263940E-03  mag=     4.0000
       N       E                     dE             d eps       ncg     rms          rms(c)
DAV:   1    -0.232299598183E+04    0.78958E-03   -0.96067E-02  4492   0.277E-01    0.979E-02
RMM:   2    -0.232299695195E+04   -0.97012E-03   -0.97672E-03  6234   0.619E-02    0.953E-02
RMM:   3    -0.232299700125E+04   -0.49297E-04   -0.10047E-03  3833   0.203E-02    0.956E-02
RMM:   4    -0.232299692900E+04    0.72248E-04   -0.10057E-04  2979   0.690E-03    0.287E-02
RMM:   5    -0.232299692523E+04    0.37675E-05   -0.39771E-05  3003   0.508E-03
 188 F= -.23440857E+04 E0= -.23440857E+04  d E =-.226102E-03  mag=     4.0000
       N       E                     dE             d eps       ncg     rms          rms(c)
DAV:   1    -0.232299680356E+04    0.12544E-03   -0.88169E-03  4784   0.848E-02    0.322E-02
RMM:   2    -0.232299689837E+04   -0.94809E-04   -0.95770E-04  5557   0.200E-02    0.293E-02
RMM:   3    -0.232299689745E+04    0.91863E-06   -0.11551E-04  3075   0.105E-02    0.170E-02
RMM:   4    -0.232299689399E+04    0.34600E-05   -0.91835E-06  2899   0.274E-03
 189 F= -.23440857E+04 E0= -.23440857E+04  d E =-.214640E-03  mag=     4.0000
       N       E                     dE             d eps       ncg     rms          rms(c)
DAV:   1    -0.232299606163E+04    0.83583E-03   -0.93586E-02  4492   0.278E-01    0.975E-02
RMM:   2    -0.232299702421E+04   -0.96258E-03   -0.98566E-03  6196   0.631E-02    0.799E-02
RMM:   3    -0.232299710104E+04   -0.76832E-04   -0.98671E-04  3899   0.209E-02    0.964E-02
RMM:   4    -0.232299702879E+04    0.72250E-04   -0.10081E-04  2961   0.680E-03    0.282E-02
RMM:   5    -0.232299702579E+04    0.30018E-05   -0.35557E-05  2985   0.486E-03
 190 F= -.23440859E+04 E0= -.23440859E+04  d E =-.190616E-03  mag=     4.0000
       N       E                     dE             d eps       ncg     rms          rms(c)
DAV:   1    -0.232299694192E+04    0.86869E-04   -0.52011E-03  4936   0.666E-02    0.258E-02
RMM:   2    -0.232299700080E+04   -0.58879E-04   -0.59148E-04  5064   0.159E-02    0.234E-02
RMM:   3    -0.232299700053E+04    0.26824E-06   -0.71519E-05  3065   0.891E-03
 191 F= -.23440859E+04 E0= -.23440859E+04  d E =-.179523E-03  mag=     4.0000
       N       E                     dE             d eps       ncg     rms          rms(c)
DAV:   1    -0.232299622879E+04    0.77201E-03   -0.87637E-02  4492   0.271E-01    0.944E-02
RMM:   2    -0.232299714835E+04   -0.91956E-03   -0.96964E-03  6160   0.623E-02    0.531E-02
RMM:   3    -0.232299720611E+04   -0.57760E-04   -0.89402E-04  3894   0.207E-02    0.606E-02
RMM:   4    -0.232299718631E+04    0.19799E-04   -0.93419E-05  2952   0.611E-03    0.369E-02
RMM:   5    -0.232299717694E+04    0.93690E-05   -0.31421E-05  2921   0.458E-03
 192 F= -.23440861E+04 E0= -.23440861E+04  d E =-.185931E-03  mag=     4.0000
       N       E                     dE             d eps       ncg     rms          rms(c)
DAV:   1    -0.232299709765E+04    0.88657E-04   -0.58127E-03  4952   0.709E-02    0.281E-02
RMM:   2    -0.232299716746E+04   -0.69810E-04   -0.69368E-04  5278   0.174E-02    0.278E-02
RMM:   3    -0.232299716529E+04    0.21744E-05   -0.86182E-05  3079   0.965E-03
 193 F= -.23440861E+04 E0= -.23440861E+04  d E =-.176773E-03  mag=     4.0000
       N       E                     dE             d eps       ncg     rms          rms(c)
DAV:   1    -0.232299652553E+04    0.64193E-03   -0.73553E-02  4492   0.243E-01    0.848E-02
RMM:   2    -0.232299731599E+04   -0.79046E-03   -0.82904E-03  6173   0.562E-02    0.483E-02
RMM:   3    -0.232299735761E+04   -0.41619E-04   -0.77990E-04  3686   0.191E-02    0.414E-02
RMM:   4    -0.232299735156E+04    0.60469E-05   -0.79301E-05  2962   0.583E-03
 194 F= -.23440863E+04 E0= -.23440863E+04  d E =-.183769E-03  mag=     4.0000
       N       E                     dE             d eps       ncg     rms          rms(c)
DAV:   1    -0.232299716650E+04    0.19111E-03   -0.16971E-02  4528   0.117E-01    0.501E-02
RMM:   2    -0.232299740800E+04   -0.24151E-03   -0.19915E-03  6005   0.278E-02    0.913E-02
RMM:   3    -0.232299735583E+04    0.52177E-04   -0.20606E-04  3060   0.979E-03    0.302E-02
RMM:   4    -0.232299734887E+04    0.69609E-05   -0.21684E-05  2934   0.349E-03
 195 F= -.23440863E+04 E0= -.23440863E+04  d E =-.179833E-03  mag=     4.0000
       N       E                     dE             d eps       ncg     rms          rms(c)
DAV:   1    -0.232299663373E+04    0.72210E-03   -0.81271E-02  4488   0.259E-01    0.928E-02
RMM:   2    -0.232299750976E+04   -0.87603E-03   -0.90083E-03  6170   0.590E-02    0.728E-02
RMM:   3    -0.232299754696E+04   -0.37205E-04   -0.92452E-04  3824   0.220E-02    0.684E-02
RMM:   4    -0.232299751278E+04    0.34181E-04   -0.94430E-05  3019   0.645E-03    0.384E-02
RMM:   5    -0.232299750523E+04    0.75503E-05   -0.31102E-05  2919   0.425E-03
 196 F= -.23440865E+04 E0= -.23440865E+04  d E =-.196658E-03  mag=     4.0000
       N       E                     dE             d eps       ncg     rms          rms(c)
DAV:   1    -0.232299740644E+04    0.10634E-03   -0.66767E-03  4944   0.750E-02    0.271E-02
RMM:   2    -0.232299747926E+04   -0.72820E-04   -0.77983E-04  5381   0.179E-02    0.187E-02
RMM:   3    -0.232299748459E+04   -0.53255E-05   -0.96876E-05  3031   0.938E-03
 197 F= -.23440865E+04 E0= -.23440865E+04  d E =-.187826E-03  mag=     4.0000
       N       E                     dE             d eps       ncg     rms          rms(c)
DAV:   1    -0.232299665600E+04    0.82326E-03   -0.84193E-02  4492   0.267E-01    0.956E-02
RMM:   2    -0.232299760816E+04   -0.95216E-03   -0.97629E-03  6140   0.610E-02    0.783E-02
RMM:   3    -0.232299767767E+04   -0.69507E-04   -0.97233E-04  3852   0.208E-02    0.910E-02
RMM:   4    -0.232299761578E+04    0.61890E-04   -0.10555E-04  2977   0.674E-03    0.306E-02
RMM:   5    -0.232299761138E+04    0.44041E-05   -0.32448E-05  2967   0.478E-03
 198 F= -.23440866E+04 E0= -.23440866E+04  d E =-.187474E-03  mag=     4.0000
       N       E                     dE             d eps       ncg     rms          rms(c)
DAV:   1    -0.232299753412E+04    0.81662E-04   -0.42909E-03  5112   0.613E-02    0.245E-02
RMM:   2    -0.232299758806E+04   -0.53937E-04   -0.53662E-04  4882   0.149E-02    0.240E-02
RMM:   3    -0.232299758732E+04    0.74107E-06   -0.67230E-05  3060   0.867E-03
 199 F= -.23440866E+04 E0= -.23440866E+04  d E =-.177475E-03  mag=     4.0000
       N       E                     dE             d eps       ncg     rms          rms(c)
DAV:   1    -0.232299678216E+04    0.80590E-03   -0.79958E-02  4492   0.258E-01    0.930E-02
RMM:   2    -0.232299771304E+04   -0.93089E-03   -0.97725E-03  6174   0.610E-02    0.554E-02
RMM:   3    -0.232299777241E+04   -0.59366E-04   -0.91766E-04  3829   0.206E-02    0.608E-02
RMM:   4    -0.232299775125E+04    0.21159E-04   -0.96754E-05  2952   0.620E-03    0.366E-02
RMM:   5    -0.232299774359E+04    0.76563E-05   -0.30636E-05  2912   0.436E-03
 200 F= -.23440868E+04 E0= -.23440868E+04  d E =-.163066E-03  mag=     4.0000
       N       E                     dE             d eps       ncg     rms          rms(c)
DAV:   1    -0.232299770702E+04    0.44225E-04   -0.19016E-03  5144   0.412E-02    0.189E-02
RMM:   2    -0.232299773538E+04   -0.28354E-04   -0.26676E-04  4304   0.106E-02    0.220E-02
RMM:   3    -0.232299773110E+04    0.42761E-05   -0.32608E-05  2935   0.625E-03
 201 F= -.23440868E+04 E0= -.23440868E+04  d E =-.151650E-03  mag=     4.0000
