       N       E                     dE             d eps       ncg     rms          rms(c)
DAV:   1     0.124371787874E+05    0.12437E+05   -0.84055E+05  4640   0.142E+03
DAV:   2    -0.125410902911E+04   -0.13691E+05   -0.13151E+05  5040   0.322E+02
DAV:   3    -0.249384857399E+04   -0.12397E+04   -0.12291E+04  5440   0.104E+02
DAV:   4    -0.252182885648E+04   -0.27980E+02   -0.27800E+02  5600   0.194E+01
DAV:   5    -0.252274461282E+04   -0.91576E+00   -0.91409E+00  5840   0.293E+00    0.170E+02
RMM:   6    -0.149130985997E+04    0.10314E+04   -0.19144E+03  4510   0.377E+01    0.724E+01
RMM:   7    -0.166622144730E+04   -0.17491E+03   -0.28779E+02  5109   0.140E+01    0.519E+01
RMM:   8    -0.171287830773E+04   -0.46657E+02   -0.61855E+01  5224   0.744E+00    0.449E+01
RMM:   9    -0.177913738628E+04   -0.66259E+02   -0.70448E+01  4960   0.769E+00    0.339E+01
RMM:  10    -0.191115506532E+04   -0.13202E+03   -0.61625E+01  5396   0.759E+00    0.313E+01
RMM:  11    -0.197410330986E+04   -0.62948E+02   -0.26396E+01  5448   0.440E+00    0.226E+01
RMM:  12    -0.206379197554E+04   -0.89689E+02   -0.36355E+01  4790   0.461E+00    0.166E+01
RMM:  13    -0.213244233422E+04   -0.68650E+02   -0.33287E+01  5039   0.419E+00    0.119E+01
RMM:  14    -0.225117803279E+04   -0.11874E+03   -0.10192E+02  4532   0.693E+00    0.940E+00
RMM:  15    -0.229499244257E+04   -0.43814E+02   -0.38019E+01  4489   0.466E+00    0.573E+00
RMM:  16    -0.231025421634E+04   -0.15262E+02   -0.16067E+01  4778   0.303E+00    0.293E+00
RMM:  17    -0.231522067244E+04   -0.49665E+01   -0.44361E+00  4847   0.161E+00    0.167E+00
RMM:  18    -0.231673408765E+04   -0.15134E+01   -0.96474E-01  5155   0.734E-01    0.810E-01
RMM:  19    -0.231731251773E+04   -0.57843E+00   -0.23935E-01  5043   0.364E-01    0.434E-01
RMM:  20    -0.231741655158E+04   -0.10403E+00   -0.47335E-02  4957   0.180E-01    0.257E-01
RMM:  21    -0.231745178532E+04   -0.35234E-01   -0.14604E-02  4668   0.995E-02    0.168E-01
RMM:  22    -0.231747859029E+04   -0.26805E-01   -0.92754E-03  4521   0.801E-02    0.122E-01
RMM:  23    -0.231749221046E+04   -0.13620E-01   -0.41703E-03  4616   0.558E-02    0.653E-02
RMM:  24    -0.231750368144E+04   -0.11471E-01   -0.37888E-03  4491   0.459E-02    0.549E-02
RMM:  25    -0.231750847178E+04   -0.47903E-02   -0.15728E-03  4624   0.348E-02    0.275E-02
RMM:  26    -0.231751092369E+04   -0.24519E-02   -0.91836E-04  4211   0.212E-02    0.164E-02
RMM:  27    -0.231751159729E+04   -0.67360E-03   -0.23350E-04  3979   0.170E-02    0.108E-02
RMM:  28    -0.231751190856E+04   -0.31126E-03   -0.10501E-04  3699   0.747E-03    0.641E-03
RMM:  29    -0.231751207256E+04   -0.16400E-03   -0.34688E-05  3410   0.662E-03    0.475E-03
RMM:  30    -0.231751216358E+04   -0.91023E-04   -0.23227E-05  3220   0.407E-03    0.228E-03
RMM:  31    -0.231751220064E+04   -0.37055E-04   -0.96861E-06  2915   0.358E-03    0.166E-03
RMM:  32    -0.231751221189E+04   -0.11257E-04   -0.58233E-06  2661   0.255E-03    0.949E-04
RMM:  33    -0.231751221408E+04   -0.21878E-05   -0.26635E-06  2441   0.199E-03
   1 F= -.23384193E+04 E0= -.23384193E+04  d E =-.279443E-04  mag=     6.9998
       N       E                     dE             d eps       ncg     rms          rms(c)
DAV:   1    -0.231747861955E+04    0.33592E-01   -0.19861E+00  4480   0.652E-01    0.297E-01
RMM:   2    -0.231747927030E+04   -0.65075E-03   -0.15144E-02  3915   0.484E-02    0.185E-01
RMM:   3    -0.231747929195E+04   -0.21653E-04   -0.19233E-03  4448   0.222E-02    0.243E-01
RMM:   4    -0.231747872392E+04    0.56802E-03   -0.90557E-04  3999   0.125E-02    0.589E-02
RMM:   5    -0.231747872829E+04   -0.43619E-05   -0.15165E-04  3121   0.623E-03    0.330E-02
RMM:   6    -0.231747872155E+04    0.67324E-05   -0.32094E-05  2694   0.353E-03
   2 F= -.23383860E+04 E0= -.23383860E+04  d E =-.432452E-04  mag=     6.9997
       N       E                     dE             d eps       ncg     rms          rms(c)
DAV:   1    -0.231750950704E+04   -0.30779E-01   -0.79257E+00  4480   0.132E+00    0.592E-01
RMM:   2    -0.231751103000E+04   -0.15230E-02   -0.50226E-02  4108   0.913E-02    0.368E-01
RMM:   3    -0.231751110463E+04   -0.74636E-04   -0.72115E-03  4885   0.453E-02    0.477E-01
RMM:   4    -0.231750887423E+04    0.22304E-02   -0.36718E-03  4850   0.244E-02    0.110E-01
RMM:   5    -0.231750887690E+04   -0.26721E-05   -0.57148E-04  3427   0.115E-02    0.642E-02
RMM:   6    -0.231750884799E+04    0.28914E-04   -0.11205E-04  3010   0.573E-03    0.382E-02
RMM:   7    -0.231750883118E+04    0.16808E-04   -0.27740E-05  2931   0.326E-03    0.152E-02
RMM:   8    -0.231750882818E+04    0.29992E-05   -0.20137E-05  2977   0.292E-03
   3 F= -.23384158E+04 E0= -.23384158E+04  d E =-.177939E-04  mag=     6.9998
       N       E                     dE             d eps       ncg     rms          rms(c)
DAV:   1    -0.231748022078E+04    0.28610E-01   -0.40899E+00  4640   0.939E-01    0.437E-01
RMM:   2    -0.231748031937E+04   -0.98586E-04   -0.20443E-02  4011   0.546E-02    0.254E-01
RMM:   3    -0.231748063644E+04   -0.31708E-03   -0.36657E-03  5121   0.265E-02    0.355E-01
RMM:   4    -0.231747939410E+04    0.12423E-02   -0.15412E-03  4261   0.157E-02    0.599E-02
RMM:   5    -0.231747941764E+04   -0.23537E-04   -0.23279E-04  3171   0.645E-03    0.344E-02
RMM:   6    -0.231747941042E+04    0.72125E-05   -0.39912E-05  2830   0.407E-03
   4 F= -.23383866E+04 E0= -.23383866E+04  d E =-.237433E-04  mag=     6.9998
       N       E                     dE             d eps       ncg     rms          rms(c)
DAV:   1    -0.231751189475E+04   -0.32477E-01   -0.82002E+00  4480   0.130E+00    0.613E-01
RMM:   2    -0.231751177610E+04    0.11865E-03   -0.35933E-02  4048   0.806E-02    0.346E-01
RMM:   3    -0.231751029248E+04    0.14836E-02   -0.58549E-03  5009   0.386E-02    0.150E-01
RMM:   4    -0.231751051483E+04   -0.22235E-03   -0.15011E-03  4253   0.170E-02    0.161E-01
RMM:   5    -0.231751025890E+04    0.25593E-03   -0.23982E-04  3379   0.838E-03    0.322E-02
RMM:   6    -0.231751024583E+04    0.13070E-04   -0.65567E-05  3128   0.429E-03    0.342E-02
RMM:   7    -0.231751023471E+04    0.11124E-04   -0.25231E-05  2852   0.358E-03    0.132E-02
RMM:   8    -0.231751023372E+04    0.99144E-06   -0.18369E-05  2893   0.247E-03
   5 F= -.23384173E+04 E0= -.23384173E+04  d E =-.321895E-04  mag=     6.9998
       N       E                     dE             d eps       ncg     rms          rms(c)
DAV:   1    -0.231748478569E+04    0.25449E-01   -0.41690E+00  4480   0.953E-01    0.430E-01
RMM:   2    -0.231748441000E+04    0.37569E-03   -0.16876E-02  3937   0.535E-02    0.247E-01
RMM:   3    -0.231748416244E+04    0.24756E-03   -0.36865E-03  5066   0.253E-02    0.256E-01
RMM:   4    -0.231748360476E+04    0.55769E-03   -0.12078E-03  3823   0.139E-02    0.738E-02
RMM:   5    -0.231748358547E+04    0.19290E-04   -0.16579E-04  3366   0.623E-03    0.338E-02
RMM:   6    -0.231748358164E+04    0.38217E-05   -0.45415E-05  2864   0.403E-03
   6 F= -.23383911E+04 E0= -.23383910E+04  d E =-.661501E-04  mag=     6.9996
       N       E                     dE             d eps       ncg     rms          rms(c)
DAV:   1    -0.231752637105E+04   -0.42786E-01   -0.78026E+00  4480   0.129E+00    0.546E-01
RMM:   2    -0.231752651579E+04   -0.14474E-03   -0.34383E-02  4112   0.747E-02    0.320E-01
RMM:   3    -0.231752631328E+04    0.20251E-03   -0.57227E-03  5230   0.347E-02    0.405E-01
RMM:   4    -0.231752490859E+04    0.14047E-02   -0.27114E-03  4155   0.204E-02    0.882E-02
RMM:   5    -0.231752488797E+04    0.20620E-04   -0.32474E-04  3447   0.928E-03    0.329E-02
RMM:   6    -0.231752489317E+04   -0.51954E-05   -0.57089E-05  3020   0.472E-03
   7 F= -.23384317E+04 E0= -.23384317E+04  d E =-.107440E-04  mag=     6.9998
       N       E                     dE             d eps       ncg     rms          rms(c)
DAV:   1    -0.231752268444E+04    0.22035E-02   -0.64286E+00  4480   0.113E+00    0.541E-01
RMM:   2    -0.231752419255E+04   -0.15081E-02   -0.52895E-02  4168   0.799E-02    0.339E-01
RMM:   3    -0.231752327404E+04    0.91851E-03   -0.46579E-03  4997   0.301E-02    0.346E-01
RMM:   4    -0.231752251128E+04    0.76276E-03   -0.20763E-03  4466   0.182E-02    0.149E-01
RMM:   5    -0.231752247981E+04    0.31465E-04   -0.57553E-04  3624   0.110E-02    0.326E-02
RMM:   6    -0.231752247577E+04    0.40423E-05   -0.66038E-05  3041   0.635E-03
   8 F= -.23384286E+04 E0= -.23384286E+04  d E =-.687503E-05  mag=     6.9999
       N       E                     dE             d eps       ncg     rms          rms(c)
DAV:   1    -0.231747772786E+04    0.44752E-01   -0.19778E+01  4480   0.186E+00    0.963E-01
RMM:   2    -0.231748569376E+04   -0.79659E-02   -0.19476E-01  4442   0.161E-01    0.677E-01
RMM:   3    -0.231748196615E+04    0.37276E-02   -0.21101E-02  4842   0.789E-02    0.623E-01
RMM:   4    -0.231747898517E+04    0.29810E-02   -0.67245E-03  5046   0.341E-02    0.226E-01
RMM:   5    -0.231747904918E+04   -0.64013E-04   -0.27477E-03  4149   0.205E-02    0.698E-02
RMM:   6    -0.231747901258E+04    0.36603E-04   -0.29518E-04  3309   0.119E-02    0.346E-02
RMM:   7    -0.231747902285E+04   -0.10277E-04   -0.12353E-04  3281   0.526E-03    0.393E-02
RMM:   8    -0.231747901163E+04    0.11230E-04   -0.33627E-05  2944   0.428E-03    0.177E-02
RMM:   9    -0.231747900915E+04    0.24735E-05   -0.73206E-06  2768   0.213E-03
   9 F= -.23383872E+04 E0= -.23383871E+04  d E =-.101124E-03  mag=     6.9993
       N       E                     dE             d eps       ncg     rms          rms(c)
DAV:   1    -0.231750073715E+04   -0.21726E-01   -0.10266E+01  4640   0.125E+00    0.475E-01
RMM:   2    -0.231750343280E+04   -0.26957E-02   -0.50939E-02  4198   0.818E-02    0.365E-01
RMM:   3    -0.231750253644E+04    0.89636E-03   -0.48442E-03  4776   0.308E-02    0.331E-01
RMM:   4    -0.231750183622E+04    0.70022E-03   -0.18688E-03  4260   0.189E-02    0.110E-01
RMM:   5    -0.231750193674E+04   -0.10052E-03   -0.57515E-04  3669   0.121E-02    0.274E-02
RMM:   6    -0.231750193313E+04    0.36138E-05   -0.57915E-05  3014   0.612E-03
  10 F= -.23384094E+04 E0= -.23384094E+04  d E =-.401183E-04  mag=     6.9996
       N       E                     dE             d eps       ncg     rms          rms(c)
DAV:   1    -0.231751338766E+04   -0.11451E-01   -0.20884E+01  4480   0.173E+00    0.565E-01
RMM:   2    -0.231751771642E+04   -0.43288E-02   -0.74602E-02  4098   0.931E-02    0.325E-01
RMM:   3    -0.231751730770E+04    0.40872E-03   -0.54537E-03  4797   0.350E-02    0.347E-01
RMM:   4    -0.231751662734E+04    0.68036E-03   -0.27450E-03  4741   0.223E-02    0.173E-01
RMM:   5    -0.231751645058E+04    0.17676E-03   -0.50655E-04  3626   0.132E-02    0.396E-02
RMM:   6    -0.231751646181E+04   -0.11233E-04   -0.10411E-04  3036   0.662E-03    0.457E-02
RMM:   7    -0.231751644419E+04    0.17621E-04   -0.28336E-05  2854   0.370E-03    0.131E-02
RMM:   8    -0.231751644461E+04   -0.41770E-06   -0.10055E-05  2788   0.246E-03
  11 F= -.23384232E+04 E0= -.23384232E+04  d E =-.196093E-04  mag=     6.9998
       N       E                     dE             d eps       ncg     rms          rms(c)
DAV:   1    -0.231751237187E+04    0.40723E-02   -0.10405E+01  4480   0.120E+00    0.390E-01
RMM:   2    -0.231751433416E+04   -0.19623E-02   -0.33320E-02  3970   0.643E-02    0.231E-01
RMM:   3    -0.231751426658E+04    0.67579E-04   -0.28742E-03  4617   0.258E-02    0.271E-01
RMM:   4    -0.231751370777E+04    0.55881E-03   -0.13876E-03  4188   0.165E-02    0.105E-01
RMM:   5    -0.231751367873E+04    0.29036E-04   -0.25011E-04  3362   0.101E-02    0.325E-02
RMM:   6    -0.231751368019E+04   -0.14593E-05   -0.44162E-05  2922   0.479E-03
  12 F= -.23384204E+04 E0= -.23384203E+04  d E =-.916368E-04  mag=     6.9995
       N       E                     dE             d eps       ncg     rms          rms(c)
DAV:   1    -0.231749478979E+04    0.18889E-01   -0.20002E+01  4480   0.170E+00    0.720E-01
RMM:   2    -0.231750005558E+04   -0.52658E-02   -0.10905E-01  4099   0.126E-01    0.359E-01
RMM:   3    -0.231749836476E+04    0.16908E-02   -0.84439E-03  4680   0.575E-02    0.363E-01
RMM:   4    -0.231749749052E+04    0.87424E-03   -0.32399E-03  4738   0.246E-02    0.212E-01
RMM:   5    -0.231749708284E+04    0.40768E-03   -0.10904E-03  4101   0.164E-02    0.478E-02
RMM:   6    -0.231749706666E+04    0.16185E-04   -0.10967E-04  3175   0.637E-03    0.312E-02
RMM:   7    -0.231749707414E+04   -0.74866E-05   -0.43600E-05  2974   0.434E-03
  13 F= -.23384046E+04 E0= -.23384046E+04  d E =-.937468E-05  mag=     6.9998
       N       E                     dE             d eps       ncg     rms          rms(c)
DAV:   1    -0.231749395896E+04    0.31077E-02   -0.53229E+00  4480   0.936E-01    0.409E-01
RMM:   2    -0.231749628570E+04   -0.23267E-02   -0.43662E-02  3978   0.679E-02    0.235E-01
RMM:   3    -0.231749586499E+04    0.42071E-03   -0.35360E-03  4770   0.280E-02    0.247E-01
RMM:   4    -0.231749536789E+04    0.49710E-03   -0.12064E-03  4211   0.143E-02    0.110E-01
RMM:   5    -0.231749525143E+04    0.11646E-03   -0.21889E-04  3582   0.801E-03    0.312E-02
RMM:   6    -0.231749525619E+04   -0.47612E-05   -0.50056E-05  2938   0.434E-03
  14 F= -.23384028E+04 E0= -.23384028E+04  d E =-.256522E-04  mag=     6.9998
       N       E                     dE             d eps       ncg     rms          rms(c)
DAV:   1    -0.231751918999E+04   -0.23939E-01   -0.12461E+00  4960   0.454E-01    0.503E-01
RMM:   2    -0.231751604707E+04    0.31429E-02   -0.13091E-02  4081   0.428E-02    0.271E-01
RMM:   3    -0.231751560749E+04    0.43957E-03   -0.33907E-03  4683   0.269E-02    0.217E-01
RMM:   4    -0.231751534040E+04    0.26709E-03   -0.12691E-03  3847   0.143E-02    0.122E-01
RMM:   5    -0.231751519457E+04    0.14583E-03   -0.29105E-04  3570   0.812E-03    0.331E-02
RMM:   6    -0.231751519243E+04    0.21446E-05   -0.50208E-05  3013   0.393E-03
  15 F= -.23384219E+04 E0= -.23384219E+04  d E =-.313712E-04  mag=     6.9998
       N       E                     dE             d eps       ncg     rms          rms(c)
DAV:   1    -0.231750919253E+04    0.60020E-02   -0.63633E-01  5040   0.321E-01    0.444E-01
RMM:   2    -0.231750604776E+04    0.31448E-02   -0.10725E-02  4126   0.376E-02    0.227E-01
RMM:   3    -0.231750567270E+04    0.37506E-03   -0.25150E-03  4582   0.232E-02    0.196E-01
RMM:   4    -0.231750544462E+04    0.22808E-03   -0.92556E-04  3698   0.124E-02    0.107E-01
RMM:   5    -0.231750533022E+04    0.11441E-03   -0.24723E-04  3445   0.739E-03    0.364E-02
RMM:   6    -0.231750533097E+04   -0.75463E-06   -0.54817E-05  2907   0.421E-03
  16 F= -.23384128E+04 E0= -.23384128E+04  d E =-.284929E-04  mag=     6.9998
       N       E                     dE             d eps       ncg     rms          rms(c)
DAV:   1    -0.231750800424E+04   -0.26740E-02   -0.12450E+00  4960   0.450E-01    0.489E-01
RMM:   2    -0.231750500172E+04    0.30025E-02   -0.11226E-02  4213   0.392E-02    0.261E-01
RMM:   3    -0.231750474523E+04    0.25648E-03   -0.26404E-03  4263   0.246E-02    0.213E-01
RMM:   4    -0.231750449047E+04    0.25476E-03   -0.11200E-03  3963   0.145E-02    0.122E-01
RMM:   5    -0.231750436707E+04    0.12340E-03   -0.26121E-04  3478   0.784E-03    0.390E-02
RMM:   6    -0.231750437078E+04   -0.37133E-05   -0.56043E-05  2876   0.458E-03
  17 F= -.23384111E+04 E0= -.23384111E+04  d E =-.298319E-04  mag=     6.9998
       N       E                     dE             d eps       ncg     rms          rms(c)
DAV:   1    -0.231751796450E+04   -0.13597E-01   -0.61831E-01  4960   0.307E-01    0.327E-01
RMM:   2    -0.231751669364E+04    0.12709E-02   -0.56137E-03  4043   0.273E-02    0.176E-01
RMM:   3    -0.231751667977E+04    0.13867E-04   -0.14072E-03  3979   0.183E-02    0.175E-01
RMM:   4    -0.231751646775E+04    0.21202E-03   -0.59383E-04  3603   0.104E-02    0.927E-02
RMM:   5    -0.231751640537E+04    0.62378E-04   -0.13378E-04  3247   0.596E-03    0.277E-02
RMM:   6    -0.231751641159E+04   -0.62201E-05   -0.39974E-05  2732   0.349E-03
  18 F= -.23384238E+04 E0= -.23384238E+04  d E =-.252879E-04  mag=     6.9998
       N       E                     dE             d eps       ncg     rms          rms(c)
DAV:   1    -0.231750593668E+04    0.10469E-01   -0.12012E+00  4480   0.433E-01    0.352E-01
RMM:   2    -0.231750559071E+04    0.34598E-03   -0.45389E-03  3866   0.273E-02    0.217E-01
RMM:   3    -0.231750611246E+04   -0.52176E-03   -0.20331E-03  4499   0.192E-02    0.288E-01
RMM:   4    -0.231750537602E+04    0.73644E-03   -0.10032E-03  3910   0.134E-02    0.761E-02
RMM:   5    -0.231750534466E+04    0.31358E-04   -0.12663E-04  3278   0.577E-03    0.156E-02
RMM:   6    -0.231750534496E+04   -0.29331E-06   -0.20341E-05  2754   0.290E-03
  19 F= -.23384122E+04 E0= -.23384122E+04  d E =-.299737E-04  mag=     6.9998
       N       E                     dE             d eps       ncg     rms          rms(c)
DAV:   1    -0.231751305584E+04   -0.77112E-02   -0.57075E-01  4480   0.303E-01    0.211E-01
RMM:   2    -0.231751304150E+04    0.14339E-04   -0.24094E-03  3674   0.199E-02    0.129E-01
RMM:   3    -0.231751306603E+04   -0.24530E-04   -0.54898E-04  3732   0.109E-02    0.135E-01
RMM:   4    -0.231751297112E+04    0.94913E-04   -0.39889E-04  3361   0.823E-03    0.714E-02
RMM:   5    -0.231751293114E+04    0.39978E-04   -0.57751E-05  2933   0.454E-03    0.197E-02
RMM:   6    -0.231751293130E+04   -0.15840E-06   -0.18130E-05  2583   0.264E-03
  20 F= -.23384202E+04 E0= -.23384202E+04  d E =-.333819E-04  mag=     6.9998
       N       E                     dE             d eps       ncg     rms          rms(c)
DAV:   1    -0.231750998673E+04    0.29444E-02   -0.10721E+00  4480   0.364E-01    0.225E-01
RMM:   2    -0.231751023184E+04   -0.24511E-03   -0.30101E-03  4019   0.212E-02    0.164E-01
RMM:   3    -0.231751031076E+04   -0.78918E-04   -0.88520E-04  3737   0.133E-02    0.185E-01
RMM:   4    -0.231751003024E+04    0.28052E-03   -0.45701E-04  3430   0.914E-03    0.501E-02
RMM:   5    -0.231751003262E+04   -0.23768E-05   -0.80545E-05  2959   0.466E-03
  21 F= -.23384170E+04 E0= -.23384170E+04  d E =-.232607E-04  mag=     6.9998
       N       E                     dE             d eps       ncg     rms          rms(c)
DAV:   1    -0.231752977009E+04   -0.19740E-01   -0.53810E-01  4480   0.261E-01    0.169E-01
RMM:   2    -0.231753011392E+04   -0.34383E-03   -0.24332E-03  3906   0.206E-02    0.194E-01
RMM:   3    -0.231752981787E+04    0.29605E-03   -0.54120E-04  3319   0.105E-02    0.949E-02
RMM:   4    -0.231752978049E+04    0.37378E-04   -0.18222E-04  3301   0.630E-03    0.504E-02
RMM:   5    -0.231752978883E+04   -0.83377E-05   -0.10028E-04  2926   0.525E-03    0.504E-02
RMM:   6    -0.231752976582E+04    0.23012E-04   -0.21947E-05  2726   0.311E-03    0.791E-03
RMM:   7    -0.231752976552E+04    0.29974E-06   -0.40186E-06  2489   0.150E-03
  22 F= -.23384367E+04 E0= -.23384367E+04  d E =-.159860E-04  mag=     6.9999
       N       E                     dE             d eps       ncg     rms          rms(c)
DAV:   1    -0.231748813295E+04    0.41633E-01   -0.10717E+00  4480   0.373E-01    0.275E-01
RMM:   2    -0.231748995786E+04   -0.18249E-02   -0.85671E-03  4569   0.394E-02    0.436E-01
RMM:   3    -0.231748810019E+04    0.18577E-02   -0.17313E-03  4222   0.204E-02    0.127E-01
RMM:   4    -0.231748807933E+04    0.20858E-04   -0.52149E-04  3668   0.978E-03    0.992E-02
RMM:   5    -0.231748805030E+04    0.29032E-04   -0.27712E-04  3150   0.791E-03    0.748E-02
RMM:   6    -0.231748799615E+04    0.54147E-04   -0.54494E-05  2923   0.446E-03    0.114E-02
RMM:   7    -0.231748799537E+04    0.77732E-06   -0.81307E-06  2746   0.217E-03
  23 F= -.23383953E+04 E0= -.23383953E+04  d E =-.468309E-04  mag=     6.9997
       N       E                     dE             d eps       ncg     rms          rms(c)
DAV:   1    -0.231750742003E+04   -0.19424E-01   -0.56381E-01  4480   0.269E-01    0.261E-01
RMM:   2    -0.231750845918E+04   -0.10392E-02   -0.65146E-03  4750   0.315E-02    0.408E-01
RMM:   3    -0.231750697477E+04    0.14844E-02   -0.19071E-03  4325   0.182E-02    0.110E-01
RMM:   4    -0.231750691902E+04    0.55754E-04   -0.40165E-04  3596   0.803E-03    0.806E-02
RMM:   5    -0.231750689823E+04    0.20790E-04   -0.15310E-04  3016   0.610E-03    0.518E-02
RMM:   6    -0.231750688064E+04    0.17591E-04   -0.23385E-05  2804   0.324E-03    0.154E-02
RMM:   7    -0.231750688063E+04    0.26048E-08   -0.11655E-05  2730   0.203E-03
  24 F= -.23384145E+04 E0= -.23384145E+04  d E =-.614283E-04  mag=     6.9996
       N       E                     dE             d eps       ncg     rms          rms(c)
DAV:   1    -0.231751607039E+04   -0.91898E-02   -0.10990E+00  4480   0.380E-01    0.399E-01
RMM:   2    -0.231751622783E+04   -0.15744E-03   -0.11374E-02  4788   0.402E-02    0.438E-01
RMM:   3    -0.231751503717E+04    0.11907E-02   -0.40159E-03  4718   0.264E-02    0.239E-01
RMM:   4    -0.231751444186E+04    0.59531E-03   -0.11187E-03  4581   0.132E-02    0.123E-01
RMM:   5    -0.231751442589E+04    0.15966E-04   -0.33020E-04  3247   0.927E-03    0.101E-01
RMM:   6    -0.231751434001E+04    0.85883E-04   -0.11467E-04  3047   0.546E-03    0.272E-02
RMM:   7    -0.231751433682E+04    0.31955E-05   -0.35904E-05  2970   0.317E-03
  25 F= -.23384209E+04 E0= -.23384209E+04  d E =-.124891E-04  mag=     6.9998
       N       E                     dE             d eps       ncg     rms          rms(c)
DAV:   1    -0.231750986521E+04    0.44748E-02   -0.58960E-01  4480   0.306E-01    0.272E-01
RMM:   2    -0.231750975335E+04    0.11185E-03   -0.59578E-03  4193   0.302E-02    0.229E-01
RMM:   3    -0.231750957478E+04    0.17857E-03   -0.15225E-03  4051   0.174E-02    0.192E-01
RMM:   4    -0.231750923574E+04    0.33905E-03   -0.75199E-04  4239   0.115E-02    0.794E-02
RMM:   5    -0.231750921552E+04    0.20224E-04   -0.13081E-04  3086   0.707E-03    0.522E-02
RMM:   6    -0.231750919330E+04    0.22211E-04   -0.47679E-05  2848   0.360E-03    0.186E-02
RMM:   7    -0.231750919148E+04    0.18293E-05   -0.11934E-05  2750   0.224E-03
  26 F= -.23384165E+04 E0= -.23384165E+04  d E =-.259304E-04  mag=     6.9998
       N       E                     dE             d eps       ncg     rms          rms(c)
DAV:   1    -0.231750915665E+04    0.36658E-04   -0.12567E+00  4560   0.424E-01    0.400E-01
RMM:   2    -0.231750808353E+04    0.10731E-02   -0.67760E-03  3688   0.310E-02    0.226E-01
RMM:   3    -0.231750791952E+04    0.16400E-03   -0.22295E-03  4305   0.202E-02    0.150E-01
RMM:   4    -0.231750778303E+04    0.13650E-03   -0.61215E-04  3579   0.111E-02    0.907E-02
RMM:   5    -0.231750770870E+04    0.74329E-04   -0.13940E-04  3145   0.569E-03    0.238E-02
RMM:   6    -0.231750771070E+04   -0.20037E-05   -0.40617E-05  2758   0.334E-03
  27 F= -.23384146E+04 E0= -.23384146E+04  d E =-.321223E-04  mag=     6.9998
       N       E                     dE             d eps       ncg     rms          rms(c)
DAV:   1    -0.231751191817E+04   -0.42095E-02   -0.62988E-01  4560   0.314E-01    0.271E-01
RMM:   2    -0.231751152142E+04    0.39675E-03   -0.27949E-03  3621   0.201E-02    0.155E-01
RMM:   3    -0.231751163590E+04   -0.11449E-03   -0.82649E-04  3929   0.121E-02    0.155E-01
RMM:   4    -0.231751143250E+04    0.20340E-03   -0.38989E-04  3299   0.929E-03    0.594E-02
RMM:   5    -0.231751141118E+04    0.21320E-04   -0.52257E-05  2929   0.406E-03    0.143E-02
RMM:   6    -0.231751141047E+04    0.70933E-06   -0.64730E-06  2449   0.212E-03
  28 F= -.23384180E+04 E0= -.23384180E+04  d E =-.308004E-04  mag=     6.9998
       N       E                     dE             d eps       ncg     rms          rms(c)
DAV:   1    -0.231750191120E+04    0.95000E-02   -0.12678E+00  4960   0.446E-01    0.554E-01
RMM:   2    -0.231749734690E+04    0.45643E-02   -0.15740E-02  4133   0.452E-02    0.287E-01
RMM:   3    -0.231749699711E+04    0.34979E-03   -0.38652E-03  4510   0.310E-02    0.238E-01
RMM:   4    -0.231749673658E+04    0.26053E-03   -0.15800E-03  4377   0.164E-02    0.175E-01
RMM:   5    -0.231749646295E+04    0.27363E-03   -0.38575E-04  3711   0.920E-03    0.383E-02
RMM:   6    -0.231749646395E+04   -0.10030E-05   -0.73155E-05  3009   0.439E-03
  29 F= -.23384041E+04 E0= -.23384041E+04  d E =-.239818E-04  mag=     6.9998
       N       E                     dE             d eps       ncg     rms          rms(c)
DAV:   1    -0.231751521919E+04   -0.18756E-01   -0.63634E-01  5040   0.315E-01    0.405E-01
RMM:   2    -0.231751287048E+04    0.23487E-02   -0.90057E-03  3990   0.322E-02    0.213E-01
RMM:   3    -0.231751266965E+04    0.20084E-03   -0.21882E-03  4284   0.216E-02    0.205E-01
RMM:   4    -0.231751237224E+04    0.29741E-03   -0.82635E-04  3680   0.121E-02    0.942E-02
RMM:   5    -0.231751229337E+04    0.78871E-04   -0.19617E-04  3365   0.673E-03    0.322E-02
RMM:   6    -0.231751229752E+04   -0.41532E-05   -0.44269E-05  2794   0.393E-03
  30 F= -.23384196E+04 E0= -.23384196E+04  d E =-.266221E-04  mag=     6.9998
       N       E                     dE             d eps       ncg     rms          rms(c)
DAV:   1    -0.231750563475E+04    0.66586E-02   -0.12314E+00  4640   0.430E-01    0.421E-01
RMM:   2    -0.231750439600E+04    0.12388E-02   -0.85794E-03  3801   0.311E-02    0.232E-01
RMM:   3    -0.231750412194E+04    0.27407E-03   -0.15986E-03  4500   0.177E-02    0.169E-01
RMM:   4    -0.231750399983E+04    0.12211E-03   -0.75698E-04  3591   0.111E-02    0.985E-02
RMM:   5    -0.231750391548E+04    0.84345E-04   -0.13084E-04  3145   0.620E-03    0.304E-02
RMM:   6    -0.231750391386E+04    0.16198E-05   -0.28914E-05  2722   0.342E-03
  31 F= -.23384108E+04 E0= -.23384108E+04  d E =-.316791E-04  mag=     6.9998
