       N       E                     dE             d eps       ncg     rms          rms(c)
DAV:   1     0.127616669594E+05    0.12762E+05   -0.83060E+05  4432   0.144E+03
DAV:   2    -0.106661770954E+04   -0.13828E+05   -0.13244E+05  5296   0.330E+02
DAV:   3    -0.247078527361E+04   -0.14042E+04   -0.13911E+04  5360   0.111E+02
DAV:   4    -0.251704528733E+04   -0.46260E+02   -0.46046E+02  6688   0.301E+01
DAV:   5    -0.251786186771E+04   -0.81658E+00   -0.81515E+00  5536   0.323E+00    0.170E+02
RMM:   6    -0.147275624534E+04    0.10451E+04   -0.19431E+03  4392   0.387E+01    0.723E+01
RMM:   7    -0.164680038183E+04   -0.17404E+03   -0.27995E+02  4953   0.138E+01    0.473E+01
RMM:   8    -0.170532230914E+04   -0.58522E+02   -0.34118E+01  5176   0.675E+00    0.393E+01
RMM:   9    -0.181207628091E+04   -0.10675E+03   -0.62063E+01  5145   0.745E+00    0.344E+01
RMM:  10    -0.193978489968E+04   -0.12771E+03   -0.57789E+01  5375   0.724E+00    0.206E+01
RMM:  11    -0.205140340112E+04   -0.11162E+03   -0.50598E+01  4730   0.562E+00    0.176E+01
RMM:  12    -0.214198432407E+04   -0.90581E+02   -0.46303E+01  4550   0.529E+00    0.117E+01
RMM:  13    -0.226622658349E+04   -0.12424E+03   -0.11547E+02  4429   0.756E+00    0.165E+01
RMM:  14    -0.229709853155E+04   -0.30872E+02   -0.32142E+01  4461   0.489E+00    0.668E+00
RMM:  15    -0.230830283173E+04   -0.11204E+02   -0.14210E+01  4673   0.247E+00    0.418E+00
RMM:  16    -0.231257941221E+04   -0.42766E+01   -0.41370E+00  5056   0.157E+00    0.220E+00
RMM:  17    -0.231442726920E+04   -0.18479E+01   -0.15632E+00  4978   0.722E-01    0.114E+00
RMM:  18    -0.231482839127E+04   -0.40112E+00   -0.46606E-01  4890   0.405E-01    0.843E-01
RMM:  19    -0.231501375921E+04   -0.18537E+00   -0.20801E-01  4583   0.256E-01    0.405E-01
RMM:  20    -0.231509039558E+04   -0.76636E-01   -0.74003E-02  4657   0.175E-01    0.182E-01
RMM:  21    -0.231511305967E+04   -0.22664E-01   -0.18699E-02  4894   0.909E-02    0.122E-01
RMM:  22    -0.231512930931E+04   -0.16250E-01   -0.62363E-03  4439   0.542E-02    0.793E-02
RMM:  23    -0.231514137788E+04   -0.12069E-01   -0.32113E-03  4453   0.451E-02    0.545E-02
RMM:  24    -0.231514979848E+04   -0.84206E-02   -0.27168E-03  4489   0.364E-02    0.287E-02
RMM:  25    -0.231515264627E+04   -0.28478E-02   -0.10448E-03  4371   0.273E-02    0.178E-02
RMM:  26    -0.231515367626E+04   -0.10300E-02   -0.38868E-04  4076   0.128E-02    0.105E-02
RMM:  27    -0.231515397441E+04   -0.29815E-03   -0.89484E-05  3699   0.971E-03    0.637E-03
RMM:  28    -0.231515410505E+04   -0.13064E-03   -0.39481E-05  3260   0.472E-03    0.389E-03
RMM:  29    -0.231515416061E+04   -0.55560E-04   -0.13020E-05  2883   0.410E-03    0.268E-03
RMM:  30    -0.231515417802E+04   -0.17407E-04   -0.60288E-06  2800   0.271E-03    0.126E-03
RMM:  31    -0.231515418592E+04   -0.79058E-05   -0.33452E-06  2429   0.216E-03
   1 F= -.23356791E+04 E0= -.23356791E+04  d E =-.233568E+04  mag=     4.0000
       N       E                     dE             d eps       ncg     rms          rms(c)
DAV:   1    -0.231533422737E+04   -0.18005E+00   -0.10058E+01  5032   0.268E+00    0.896E-01
RMM:   2    -0.231541990799E+04   -0.85681E-01   -0.87511E-01  6307   0.525E-01    0.108E+00
RMM:   3    -0.231542108710E+04   -0.11791E-02   -0.98273E-02  6046   0.179E-01    0.677E-01
RMM:   4    -0.231541718878E+04    0.38983E-02   -0.88542E-03  5561   0.450E-02    0.253E-01
RMM:   5    -0.231541597597E+04    0.12128E-02   -0.34613E-03  4811   0.346E-02    0.129E-01
RMM:   6    -0.231541586822E+04    0.10775E-03   -0.82145E-04  4483   0.265E-02    0.496E-02
RMM:   7    -0.231541585973E+04    0.84940E-05   -0.14325E-04  3913   0.913E-03    0.215E-02
RMM:   8    -0.231541585397E+04    0.57569E-05   -0.36848E-05  3032   0.668E-03
   2 F= -.23359403E+04 E0= -.23359403E+04  d E =-.261273E+00  mag=     4.0000
       N       E                     dE             d eps       ncg     rms          rms(c)
DAV:   1    -0.231535270865E+04    0.63151E-01   -0.30635E+01  4544   0.481E+00    0.158E+00
RMM:   2    -0.231562865168E+04   -0.27594E+00   -0.26491E+00  6233   0.929E-01    0.239E+00
RMM:   3    -0.231561983321E+04    0.88185E-02   -0.32076E-01  5970   0.318E-01    0.106E+00
RMM:   4    -0.231561017569E+04    0.96575E-02   -0.29814E-02  5591   0.759E-02    0.476E-01
RMM:   5    -0.231560694995E+04    0.32257E-02   -0.11412E-02  4998   0.610E-02    0.380E-01
RMM:   6    -0.231560603670E+04    0.91325E-03   -0.37850E-03  4821   0.489E-02    0.140E-01
RMM:   7    -0.231560588613E+04    0.15057E-03   -0.45377E-04  4517   0.148E-02    0.380E-02
RMM:   8    -0.231560587337E+04    0.12756E-04   -0.10404E-04  3511   0.894E-03    0.268E-02
RMM:   9    -0.231560587352E+04   -0.14674E-06   -0.36892E-05  2980   0.519E-03
   3 F= -.23361304E+04 E0= -.23361304E+04  d E =-.451313E+00  mag=     4.0000
       N       E                     dE             d eps       ncg     rms          rms(c)
DAV:   1    -0.231542660603E+04    0.17927E+00   -0.22767E+01  4584   0.445E+00    0.164E+00
RMM:   2    -0.231572895540E+04   -0.30235E+00   -0.33003E+00  6145   0.933E-01    0.113E+00
RMM:   3    -0.231576342244E+04   -0.34467E-01   -0.37000E-01  5802   0.332E-01    0.151E+00
RMM:   4    -0.231574711493E+04    0.16308E-01   -0.39138E-02  6222   0.866E-02    0.365E-01
RMM:   5    -0.231574546180E+04    0.16531E-02   -0.81203E-03  4796   0.469E-02    0.201E-01
RMM:   6    -0.231574507030E+04    0.39151E-03   -0.18691E-03  5019   0.358E-02    0.889E-02
RMM:   7    -0.231574502143E+04    0.48865E-04   -0.38939E-04  5024   0.163E-02    0.327E-02
RMM:   8    -0.231574499102E+04    0.30411E-04   -0.55873E-05  3279   0.718E-03    0.181E-02
RMM:   9    -0.231574497144E+04    0.19579E-04   -0.31021E-05  3052   0.521E-03    0.848E-03
RMM:  10    -0.231574496575E+04    0.56876E-05   -0.11133E-05  2839   0.446E-03
   4 F= -.23362701E+04 E0= -.23362701E+04  d E =-.139749E+00  mag=     4.0000
       N       E                     dE             d eps       ncg     rms          rms(c)
DAV:   1    -0.231563888471E+04    0.10609E+00   -0.94963E+00  4640   0.290E+00    0.107E+00
RMM:   2    -0.231576562241E+04   -0.12674E+00   -0.13788E+00  6165   0.610E-01    0.760E-01
RMM:   3    -0.231577776418E+04   -0.12142E-01   -0.14614E-01  5830   0.210E-01    0.919E-01
RMM:   4    -0.231577167999E+04    0.60842E-02   -0.15890E-02  6026   0.555E-02    0.234E-01
RMM:   5    -0.231577090874E+04    0.77125E-03   -0.34626E-03  4762   0.320E-02    0.124E-01
RMM:   6    -0.231577078379E+04    0.12495E-03   -0.73110E-04  4790   0.236E-02    0.469E-02
RMM:   7    -0.231577076563E+04    0.18160E-04   -0.14388E-04  4275   0.100E-02    0.192E-02
RMM:   8    -0.231577075340E+04    0.12228E-04   -0.25446E-05  2949   0.598E-03    0.108E-02
RMM:   9    -0.231577074643E+04    0.69702E-05   -0.16321E-05  2866   0.379E-03
   5 F= -.23362960E+04 E0= -.23362960E+04  d E =-.165618E+00  mag=     4.0000
       N       E                     dE             d eps       ncg     rms          rms(c)
DAV:   1    -0.231564100719E+04    0.12975E+00   -0.10412E+01  4560   0.275E+00    0.109E+00
RMM:   2    -0.231584364385E+04   -0.20264E+00   -0.22089E+00  6301   0.643E-01    0.585E-01
RMM:   3    -0.231586619346E+04   -0.22550E-01   -0.25895E-01  5711   0.222E-01    0.686E-01
RMM:   4    -0.231586431374E+04    0.18797E-02   -0.24533E-02  5838   0.515E-02    0.306E-01
RMM:   5    -0.231586337452E+04    0.93922E-03   -0.22030E-03  4729   0.255E-02    0.160E-01
RMM:   6    -0.231586320860E+04    0.16592E-03   -0.95637E-04  4921   0.223E-02    0.627E-02
RMM:   7    -0.231586319393E+04    0.14675E-04   -0.17653E-04  4573   0.109E-02    0.199E-02
RMM:   8    -0.231586318778E+04    0.61428E-05   -0.31374E-05  2921   0.512E-03
   6 F= -.23363879E+04 E0= -.23363879E+04  d E =-.919414E-01  mag=     4.0000
       N       E                     dE             d eps       ncg     rms          rms(c)
DAV:   1    -0.231541298174E+04    0.45021E+00   -0.23539E+01  4488   0.412E+00    0.164E+00
RMM:   2    -0.231587471372E+04   -0.46173E+00   -0.50313E+00  6300   0.947E-01    0.808E-01
RMM:   3    -0.231592141273E+04   -0.46699E-01   -0.54617E-01  5705   0.327E-01    0.835E-01
RMM:   4    -0.231592010388E+04    0.13089E-02   -0.54099E-02  5967   0.749E-02    0.495E-01
RMM:   5    -0.231591793099E+04    0.21729E-02   -0.48187E-03  4921   0.354E-02    0.264E-01
RMM:   6    -0.231591737215E+04    0.55884E-03   -0.24311E-03  5244   0.319E-02    0.102E-01
RMM:   7    -0.231591731812E+04    0.54035E-04   -0.51541E-04  5008   0.188E-02    0.362E-02
RMM:   8    -0.231591730349E+04    0.14632E-04   -0.99801E-05  3379   0.730E-03    0.194E-02
RMM:   9    -0.231591729313E+04    0.10354E-04   -0.28156E-05  2960   0.529E-03    0.937E-03
RMM:  10    -0.231591729189E+04    0.12430E-05   -0.13661E-05  2847   0.426E-03
   7 F= -.23364407E+04 E0= -.23364407E+04  d E =-.144709E+00  mag=     4.0000
       N       E                     dE             d eps       ncg     rms          rms(c)
DAV:   1    -0.231588920397E+04    0.28089E-01   -0.25805E+00  4592   0.131E+00    0.578E-01
RMM:   2    -0.231594535935E+04   -0.56155E-01   -0.61621E-01  6300   0.328E-01    0.333E-01
RMM:   3    -0.231595155319E+04   -0.61938E-02   -0.70817E-02  5784   0.117E-01    0.315E-01
RMM:   4    -0.231595130514E+04    0.24806E-03   -0.67478E-03  5118   0.250E-02    0.156E-01
RMM:   5    -0.231595104041E+04    0.26473E-03   -0.61615E-04  4675   0.136E-02    0.947E-02
RMM:   6    -0.231595099486E+04    0.45551E-04   -0.47668E-04  4745   0.132E-02    0.531E-02
RMM:   7    -0.231595096994E+04    0.24913E-04   -0.66445E-05  2894   0.780E-03    0.140E-02
RMM:   8    -0.231595096924E+04    0.70402E-06   -0.16396E-05  2860   0.374E-03
   8 F= -.23364732E+04 E0= -.23364732E+04  d E =-.324654E-01  mag=     4.0000
       N       E                     dE             d eps       ncg     rms          rms(c)
DAV:   1    -0.231572338001E+04    0.22759E+00   -0.10584E+01  4448   0.265E+00    0.117E+00
RMM:   2    -0.231595454438E+04   -0.23116E+00   -0.25457E+00  6318   0.658E-01    0.627E-01
RMM:   3    -0.231598184424E+04   -0.27300E-01   -0.30545E-01  5789   0.238E-01    0.606E-01
RMM:   4    -0.231598101537E+04    0.82887E-03   -0.28438E-02  5949   0.503E-02    0.332E-01
RMM:   5    -0.231597991958E+04    0.10958E-02   -0.25335E-03  5105   0.244E-02    0.203E-01
RMM:   6    -0.231597960308E+04    0.31650E-03   -0.23464E-03  5237   0.261E-02    0.694E-02
RMM:   7    -0.231597957048E+04    0.32603E-04   -0.28871E-04  4327   0.150E-02    0.290E-02
RMM:   8    -0.231597956290E+04    0.75736E-05   -0.64989E-05  3108   0.469E-03
   9 F= -.23364991E+04 E0= -.23364991E+04  d E =-.583836E-01  mag=     4.0000
       N       E                     dE             d eps       ncg     rms          rms(c)
DAV:   1    -0.231595119435E+04    0.28376E-01   -0.30055E+00  4480   0.153E+00    0.622E-01
RMM:   2    -0.231600548839E+04   -0.54294E-01   -0.59502E-01  6203   0.347E-01    0.379E-01
RMM:   3    -0.231601170745E+04   -0.62191E-02   -0.68315E-02  5823   0.126E-01    0.377E-01
RMM:   4    -0.231601105001E+04    0.65743E-03   -0.70447E-03  5468   0.278E-02    0.164E-01
RMM:   5    -0.231601076657E+04    0.28345E-03   -0.80361E-04  4705   0.159E-02    0.942E-02
RMM:   6    -0.231601073680E+04    0.29769E-04   -0.52301E-04  4883   0.149E-02    0.480E-02
RMM:   7    -0.231601072287E+04    0.13927E-04   -0.68705E-05  3036   0.793E-03    0.218E-02
RMM:   8    -0.231601072385E+04   -0.98158E-06   -0.26311E-05  2876   0.402E-03
  10 F= -.23365288E+04 E0= -.23365288E+04  d E =-.296907E-01  mag=     4.0000
       N       E                     dE             d eps       ncg     rms          rms(c)
DAV:   1    -0.231576239951E+04    0.24832E+00   -0.13679E+01  4408   0.326E+00    0.132E+00
RMM:   2    -0.231601029735E+04   -0.24790E+00   -0.27212E+00  6214   0.742E-01    0.744E-01
RMM:   3    -0.231604098522E+04   -0.30688E-01   -0.33188E-01  5816   0.271E-01    0.767E-01
RMM:   4    -0.231603802877E+04    0.29564E-02   -0.32516E-02  6143   0.594E-02    0.359E-01
RMM:   5    -0.231603674220E+04    0.12866E-02   -0.38121E-03  4899   0.306E-02    0.210E-01
RMM:   6    -0.231603648869E+04    0.25351E-03   -0.26475E-03  5280   0.308E-02    0.859E-02
RMM:   7    -0.231603646569E+04    0.22993E-04   -0.30798E-04  4796   0.156E-02    0.536E-02
RMM:   8    -0.231603646118E+04    0.45100E-05   -0.10526E-04  3118   0.575E-03    0.355E-02
RMM:   9    -0.231603647064E+04   -0.94549E-05   -0.62433E-05  2995   0.535E-03
  11 F= -.23365512E+04 E0= -.23365512E+04  d E =-.520798E-01  mag=     4.0000
       N       E                     dE             d eps       ncg     rms          rms(c)
DAV:   1    -0.231601403892E+04    0.22422E-01   -0.28297E+00  4496   0.150E+00    0.546E-01
RMM:   2    -0.231606051915E+04   -0.46480E-01   -0.50178E-01  6204   0.323E-01    0.364E-01
RMM:   3    -0.231606536250E+04   -0.48434E-02   -0.54585E-02  5803   0.112E-01    0.354E-01
RMM:   4    -0.231606476892E+04    0.59358E-03   -0.60132E-03  5351   0.261E-02    0.163E-01
RMM:   5    -0.231606457432E+04    0.19461E-03   -0.74635E-04  4490   0.157E-02    0.918E-02
RMM:   6    -0.231606457873E+04   -0.44152E-05   -0.37389E-04  4503   0.143E-02    0.490E-02
RMM:   7    -0.231606458210E+04   -0.33632E-05   -0.59833E-05  2977   0.717E-03
  12 F= -.23365780E+04 E0= -.23365780E+04  d E =-.268212E-01  mag=     4.0000
       N       E                     dE             d eps       ncg     rms          rms(c)
DAV:   1    -0.231577840783E+04    0.28617E+00   -0.17831E+01  4408   0.376E+00    0.136E+00
RMM:   2    -0.231607378116E+04   -0.29537E+00   -0.31997E+00  6217   0.816E-01    0.814E-01
RMM:   3    -0.231610539545E+04   -0.31614E-01   -0.34878E-01  5840   0.281E-01    0.818E-01
RMM:   4    -0.231610215331E+04    0.32421E-02   -0.36663E-02  6072   0.651E-02    0.416E-01
RMM:   5    -0.231610104496E+04    0.11083E-02   -0.44292E-03  4818   0.349E-02    0.246E-01
RMM:   6    -0.231610098826E+04    0.56703E-04   -0.23146E-03  5100   0.317E-02    0.128E-01
RMM:   7    -0.231610106201E+04   -0.73749E-04   -0.44194E-04  4801   0.155E-02    0.987E-02
RMM:   8    -0.231610110952E+04   -0.47516E-04   -0.32755E-04  3632   0.852E-03    0.638E-02
RMM:   9    -0.231610115596E+04   -0.46434E-04   -0.28603E-04  3587   0.883E-03    0.276E-02
RMM:  10    -0.231610116036E+04   -0.44014E-05   -0.61126E-05  2866   0.587E-03
  13 F= -.23366112E+04 E0= -.23366112E+04  d E =-.599771E-01  mag=     4.0000
       N       E                     dE             d eps       ncg     rms          rms(c)
DAV:   1    -0.231607874835E+04    0.22408E-01   -0.34684E+00  4432   0.167E+00    0.619E-01
RMM:   2    -0.231613136984E+04   -0.52621E-01   -0.56995E-01  6125   0.363E-01    0.336E-01
RMM:   3    -0.231613665411E+04   -0.52843E-02   -0.67306E-02  5689   0.135E-01    0.295E-01
RMM:   4    -0.231613656757E+04    0.86535E-04   -0.65897E-03  5435   0.299E-02    0.204E-01
RMM:   5    -0.231613614725E+04    0.42033E-03   -0.11221E-03  4906   0.195E-02    0.948E-02
RMM:   6    -0.231613614621E+04    0.10407E-05   -0.37592E-04  4430   0.144E-02    0.519E-02
RMM:   7    -0.231613615173E+04   -0.55212E-05   -0.69197E-05  3295   0.701E-03
  14 F= -.23366456E+04 E0= -.23366456E+04  d E =-.344619E-01  mag=     4.0000
       N       E                     dE             d eps       ncg     rms          rms(c)
DAV:   1    -0.231603734716E+04    0.98799E-01   -0.72437E+00  4420   0.242E+00    0.893E-01
RMM:   2    -0.231614561650E+04   -0.10827E+00   -0.11717E+00  6119   0.524E-01    0.483E-01
RMM:   3    -0.231615719132E+04   -0.11575E-01   -0.14654E-01  5688   0.198E-01    0.417E-01
RMM:   4    -0.231615708991E+04    0.10141E-03   -0.14058E-02  5757   0.435E-02    0.292E-01
RMM:   5    -0.231615626107E+04    0.82884E-03   -0.22109E-03  5015   0.264E-02    0.141E-01
RMM:   6    -0.231615622463E+04    0.36440E-04   -0.76815E-04  4811   0.201E-02    0.757E-02
RMM:   7    -0.231615624218E+04   -0.17551E-04   -0.15885E-04  4031   0.938E-03    0.526E-02
RMM:   8    -0.231615625314E+04   -0.10953E-04   -0.10161E-04  3054   0.693E-03    0.337E-02
RMM:   9    -0.231615626524E+04   -0.12105E-04   -0.81020E-05  3106   0.574E-03    0.148E-02
RMM:  10    -0.231615626842E+04   -0.31757E-05   -0.19125E-05  2843   0.451E-03
  15 F= -.23366650E+04 E0= -.23366650E+04  d E =-.538045E-01  mag=     4.0000
       N       E                     dE             d eps       ncg     rms          rms(c)
DAV:   1    -0.231612939460E+04    0.26871E-01   -0.46117E+00  4420   0.192E+00    0.618E-01
RMM:   2    -0.231618013788E+04   -0.50743E-01   -0.54201E-01  6096   0.383E-01    0.353E-01
RMM:   3    -0.231618440433E+04   -0.42665E-02   -0.60203E-02  5723   0.139E-01    0.302E-01
RMM:   4    -0.231618420969E+04    0.19464E-03   -0.60567E-03  5545   0.308E-02    0.210E-01
RMM:   5    -0.231618377347E+04    0.43622E-03   -0.14818E-03  4826   0.221E-02    0.953E-02
RMM:   6    -0.231618380182E+04   -0.28346E-04   -0.36579E-04  4281   0.153E-02    0.595E-02
RMM:   7    -0.231618381199E+04   -0.10174E-04   -0.79810E-05  3260   0.659E-03    0.414E-02
RMM:   8    -0.231618382463E+04   -0.12638E-04   -0.78989E-05  2929   0.600E-03    0.228E-02
RMM:   9    -0.231618382994E+04   -0.53163E-05   -0.34905E-05  2853   0.446E-03
  16 F= -.23366920E+04 E0= -.23366920E+04  d E =-.270252E-01  mag=     4.0000
       N       E                     dE             d eps       ncg     rms          rms(c)
DAV:   1    -0.231613266514E+04    0.51159E-01   -0.52778E+00  4408   0.205E+00    0.661E-01
RMM:   2    -0.231619092663E+04   -0.58261E-01   -0.62282E-01  6083   0.408E-01    0.371E-01
RMM:   3    -0.231619581847E+04   -0.48918E-02   -0.69492E-02  5680   0.149E-01    0.307E-01
RMM:   4    -0.231619570434E+04    0.11412E-03   -0.71102E-03  5547   0.330E-02    0.226E-01
RMM:   5    -0.231619517817E+04    0.52618E-03   -0.16294E-03  4867   0.233E-02    0.998E-02
RMM:   6    -0.231619520550E+04   -0.27334E-04   -0.39584E-04  4313   0.159E-02    0.606E-02
RMM:   7    -0.231619521518E+04   -0.96831E-05   -0.82126E-05  3304   0.685E-03
  17 F= -.23367028E+04 E0= -.23367028E+04  d E =-.378463E-01  mag=     4.0000
       N       E                     dE             d eps       ncg     rms          rms(c)
DAV:   1    -0.231618814053E+04    0.70650E-02   -0.55090E+00  4420   0.213E+00    0.615E-01
RMM:   2    -0.231622963355E+04   -0.41493E-01   -0.44815E-01  6070   0.385E-01    0.422E-01
RMM:   3    -0.231623211761E+04   -0.24841E-02   -0.42580E-02  5697   0.131E-01    0.362E-01
RMM:   4    -0.231623131306E+04    0.80454E-03   -0.47773E-03  5425   0.322E-02    0.205E-01
RMM:   5    -0.231623105653E+04    0.25653E-03   -0.17009E-03  4880   0.255E-02    0.108E-01
RMM:   6    -0.231623111738E+04   -0.60848E-04   -0.34697E-04  4213   0.167E-02    0.745E-02
RMM:   7    -0.231623114469E+04   -0.27307E-04   -0.13230E-04  3292   0.687E-03    0.529E-02
RMM:   8    -0.231623117583E+04   -0.31147E-04   -0.13280E-04  2982   0.679E-03    0.254E-02
RMM:   9    -0.231623118384E+04   -0.80039E-05   -0.54333E-05  2860   0.491E-03
  18 F= -.23367375E+04 E0= -.23367375E+04  d E =-.347241E-01  mag=     4.0000
       N       E                     dE             d eps       ncg     rms          rms(c)
DAV:   1    -0.231615046486E+04    0.80711E-01   -0.13640E+01  4408   0.335E+00    0.955E-01
RMM:   2    -0.231625281028E+04   -0.10235E+00   -0.11063E+00  6045   0.599E-01    0.632E-01
RMM:   3    -0.231625981948E+04   -0.70092E-02   -0.11280E-01  5694   0.213E-01    0.559E-01
RMM:   4    -0.231625776887E+04    0.20506E-02   -0.11854E-02  5701   0.506E-02    0.316E-01
RMM:   5    -0.231625705581E+04    0.71305E-03   -0.37502E-03  4903   0.372E-02    0.162E-01
RMM:   6    -0.231625715033E+04   -0.94516E-04   -0.89623E-04  4599   0.249E-02    0.102E-01
RMM:   7    -0.231625721060E+04   -0.60271E-04   -0.23988E-04  3725   0.101E-02    0.732E-02
RMM:   8    -0.231625727224E+04   -0.61637E-04   -0.23039E-04  3361   0.930E-03    0.415E-02
RMM:   9    -0.231625730002E+04   -0.27785E-04   -0.12644E-04  3013   0.673E-03    0.205E-02
RMM:  10    -0.231625730534E+04   -0.53183E-05   -0.58256E-05  2864   0.475E-03
  19 F= -.23367617E+04 E0= -.23367617E+04  d E =-.588969E-01  mag=     4.0000
       N       E                     dE             d eps       ncg     rms          rms(c)
DAV:   1    -0.231623527333E+04    0.22027E-01   -0.65996E+00  4432   0.232E+00    0.728E-01
RMM:   2    -0.231628879970E+04   -0.53526E-01   -0.58916E-01  5970   0.429E-01    0.428E-01
RMM:   3    -0.231629301766E+04   -0.42180E-02   -0.63765E-02  5583   0.164E-01    0.364E-01
RMM:   4    -0.231629237790E+04    0.63976E-03   -0.65572E-03  5653   0.363E-02    0.231E-01
RMM:   5    -0.231629194478E+04    0.43312E-03   -0.20475E-03  5095   0.268E-02    0.131E-01
RMM:   6    -0.231629195330E+04   -0.85212E-05   -0.67338E-04  4676   0.179E-02    0.753E-02
RMM:   7    -0.231629196653E+04   -0.13232E-04   -0.13714E-04  3379   0.909E-03    0.549E-02
RMM:   8    -0.231629200182E+04   -0.35287E-04   -0.16799E-04  3164   0.698E-03    0.336E-02
RMM:   9    -0.231629201643E+04   -0.14609E-04   -0.65940E-05  2871   0.557E-03    0.182E-02
RMM:  10    -0.231629202201E+04   -0.55872E-05   -0.47365E-05  2856   0.430E-03
  20 F= -.23367950E+04 E0= -.23367950E+04  d E =-.333415E-01  mag=     4.0000
       N       E                     dE             d eps       ncg     rms          rms(c)
DAV:   1    -0.231625780714E+04    0.34209E-01   -0.52551E+00  4448   0.205E+00    0.646E-01
RMM:   2    -0.231630032436E+04   -0.42517E-01   -0.46671E-01  5949   0.377E-01    0.379E-01
RMM:   3    -0.231630353114E+04   -0.32068E-02   -0.49634E-02  5558   0.147E-01    0.317E-01
RMM:   4    -0.231630304688E+04    0.48426E-03   -0.52116E-03  5582   0.322E-02    0.203E-01
RMM:   5    -0.231630269199E+04    0.35489E-03   -0.16209E-03  5092   0.239E-02    0.113E-01
RMM:   6    -0.231630268939E+04    0.25913E-05   -0.50252E-04  4559   0.157E-02    0.627E-02
RMM:   7    -0.231630269892E+04   -0.95270E-05   -0.94210E-05  3166   0.801E-03
  21 F= -.23368045E+04 E0= -.23368045E+04  d E =-.427832E-01  mag=     4.0000
       N       E                     dE             d eps       ncg     rms          rms(c)
DAV:   1    -0.231627923035E+04    0.23459E-01   -0.67525E+00  4408   0.227E+00    0.688E-01
RMM:   2    -0.231632638318E+04   -0.47153E-01   -0.51214E-01  5921   0.412E-01    0.370E-01
RMM:   3    -0.231632875857E+04   -0.23754E-02   -0.45185E-02  5426   0.147E-01    0.270E-01
RMM:   4    -0.231632891834E+04   -0.15977E-03   -0.60443E-03  5389   0.378E-02    0.258E-01
RMM:   5    -0.231632843599E+04    0.48236E-03   -0.18562E-03  5028   0.261E-02    0.135E-01
RMM:   6    -0.231632842983E+04    0.61558E-05   -0.46882E-04  4531   0.147E-02    0.728E-02
RMM:   7    -0.231632846603E+04   -0.36200E-04   -0.11768E-04  3245   0.955E-03    0.561E-02
RMM:   8    -0.231632849792E+04   -0.31887E-04   -0.10888E-04  3061   0.630E-03    0.376E-02
RMM:   9    -0.231632852124E+04   -0.23319E-04   -0.83266E-05  2951   0.565E-03    0.211E-02
RMM:  10    -0.231632852888E+04   -0.76415E-05   -0.50862E-05  2854   0.467E-03
  22 F= -.23368288E+04 E0= -.23368288E+04  d E =-.243588E-01  mag=     4.0000
       N       E                     dE             d eps       ncg     rms          rms(c)
DAV:   1    -0.231632016598E+04    0.83553E-02   -0.17300E+00  4496   0.115E+00    0.346E-01
RMM:   2    -0.231633212997E+04   -0.11964E-01   -0.13014E-01  5907   0.210E-01    0.184E-01
RMM:   3    -0.231633274032E+04   -0.61034E-03   -0.11780E-02  5321   0.782E-02    0.129E-01
RMM:   4    -0.231633279986E+04   -0.59542E-04   -0.15344E-03  4822   0.198E-02    0.128E-01
RMM:   5    -0.231633266416E+04    0.13570E-03   -0.46740E-04  4461   0.139E-02    0.612E-02
RMM:   6    -0.231633265895E+04    0.52073E-05   -0.10188E-04  3382   0.791E-03    0.299E-02
RMM:   7    -0.231633266470E+04   -0.57435E-05   -0.24743E-05  2862   0.536E-03
  23 F= -.23368322E+04 E0= -.23368322E+04  d E =-.277474E-01  mag=     4.0000
       N       E                     dE             d eps       ncg     rms          rms(c)
DAV:   1    -0.231631673777E+04    0.15921E-01   -0.33291E+00  4408   0.168E+00    0.536E-01
RMM:   2    -0.231634780805E+04   -0.31070E-01   -0.33883E-01  5861   0.316E-01    0.276E-01
RMM:   3    -0.231635006948E+04   -0.22614E-02   -0.37915E-02  5439   0.127E-01    0.173E-01
RMM:   4    -0.231634997048E+04    0.99005E-04   -0.40629E-03  4787   0.303E-02    0.107E-01
RMM:   5    -0.231634994457E+04    0.25911E-04   -0.67008E-04  4837   0.208E-02    0.941E-02
RMM:   6    -0.231634987888E+04    0.65682E-04   -0.24396E-04  4001   0.943E-03    0.430E-02
RMM:   7    -0.231634987337E+04    0.55089E-05   -0.40471E-05  2882   0.632E-03
  24 F= -.23368485E+04 E0= -.23368485E+04  d E =-.162154E-01  mag=     4.0000
       N       E                     dE             d eps       ncg     rms          rms(c)
DAV:   1    -0.231634615506E+04    0.37238E-02   -0.56676E-01  4560   0.693E-01    0.223E-01
RMM:   2    -0.231635147942E+04   -0.53244E-02   -0.58059E-02  5830   0.131E-01    0.114E-01
RMM:   3    -0.231635186344E+04   -0.38402E-03   -0.63878E-03  5254   0.535E-02    0.723E-02
RMM:   4    -0.231635186366E+04   -0.21717E-06   -0.71642E-04  4263   0.132E-02    0.558E-02
RMM:   5    -0.231635185639E+04    0.72715E-05   -0.15424E-04  3066   0.923E-03    0.524E-02
RMM:   6    -0.231635183758E+04    0.18809E-04   -0.45484E-05  2937   0.564E-03    0.167E-02
RMM:   7    -0.231635183912E+04   -0.15468E-05   -0.11719E-05  2849   0.422E-03
  25 F= -.23368500E+04 E0= -.23368500E+04  d E =-.177637E-01  mag=     4.0000
       N       E                     dE             d eps       ncg     rms          rms(c)
DAV:   1    -0.231632864728E+04    0.23190E-01   -0.33791E+00  4408   0.178E+00    0.551E-01
RMM:   2    -0.231636272359E+04   -0.34076E-01   -0.36877E-01  5839   0.325E-01    0.283E-01
RMM:   3    -0.231636493650E+04   -0.22129E-02   -0.37849E-02  5406   0.127E-01    0.183E-01
RMM:   4    -0.231636495429E+04   -0.17792E-04   -0.44398E-03  5166   0.296E-02    0.168E-01
RMM:   5    -0.231636467391E+04    0.28038E-03   -0.11255E-03  5056   0.208E-02    0.918E-02
RMM:   6    -0.231636460315E+04    0.70757E-04   -0.26206E-04  4367   0.111E-02    0.272E-02
RMM:   7    -0.231636460426E+04   -0.11119E-05   -0.39228E-05  2914   0.725E-03
  26 F= -.23368619E+04 E0= -.23368619E+04  d E =-.119491E-01  mag=     4.0000
       N       E                     dE             d eps       ncg     rms          rms(c)
DAV:   1    -0.231636278671E+04    0.18164E-02   -0.23837E-01  4784   0.471E-01    0.148E-01
RMM:   2    -0.231636520852E+04   -0.24218E-02   -0.26241E-02  5838   0.868E-02    0.758E-02
RMM:   3    -0.231636536530E+04   -0.15679E-03   -0.26255E-03  4694   0.334E-02    0.510E-02
RMM:   4    -0.231636537237E+04   -0.70696E-05   -0.32360E-04  3136   0.831E-03    0.506E-02
RMM:   5    -0.231636534375E+04    0.28624E-04   -0.81475E-05  2969   0.659E-03    0.220E-02
RMM:   6    -0.231636534353E+04    0.21569E-06   -0.22022E-05  2867   0.512E-03
  27 F= -.23368625E+04 E0= -.23368625E+04  d E =-.124671E-01  mag=     4.0000
       N       E                     dE             d eps       ncg     rms          rms(c)
DAV:   1    -0.231634849944E+04    0.16844E-01   -0.27765E+00  4408   0.163E+00    0.454E-01
RMM:   2    -0.231637541858E+04   -0.26919E-01   -0.28594E-01  5868   0.286E-01    0.278E-01
RMM:   3    -0.231637710596E+04   -0.16874E-02   -0.28806E-02  5433   0.106E-01    0.195E-01
RMM:   4    -0.231637700103E+04    0.10493E-03   -0.31584E-03  5148   0.241E-02    0.143E-01
RMM:   5    -0.231637675259E+04    0.24844E-03   -0.96089E-04  5024   0.190E-02    0.806E-02
RMM:   6    -0.231637670240E+04    0.50190E-04   -0.29343E-04  4396   0.120E-02    0.355E-02
RMM:   7    -0.231637669726E+04    0.51316E-05   -0.41504E-05  2952   0.668E-03
  28 F= -.23368731E+04 E0= -.23368731E+04  d E =-.105891E-01  mag=     4.0000
       N       E                     dE             d eps       ncg     rms          rms(c)
DAV:   1    -0.231635979959E+04    0.16903E-01   -0.19417E+00  4420   0.136E+00    0.380E-01
RMM:   2    -0.231637868001E+04   -0.18880E-01   -0.20027E-01  5855   0.240E-01    0.234E-01
RMM:   3    -0.231637985687E+04   -0.11769E-02   -0.19992E-02  5381   0.895E-02    0.165E-01
RMM:   4    -0.231637978195E+04    0.74925E-04   -0.22220E-03  4969   0.204E-02    0.121E-01
RMM:   5    -0.231637960460E+04    0.17734E-03   -0.67206E-04  4907   0.163E-02    0.679E-02
RMM:   6    -0.231637957484E+04    0.29761E-04   -0.20823E-04  4211   0.106E-02    0.318E-02
RMM:   7    -0.231637957167E+04    0.31705E-05   -0.33017E-05  2880   0.603E-03
  29 F= -.23368753E+04 E0= -.23368753E+04  d E =-.128140E-01  mag=     4.0000
       N       E                     dE             d eps       ncg     rms          rms(c)
DAV:   1    -0.231636524529E+04    0.14330E-01   -0.19803E+00  4432   0.138E+00    0.399E-01
RMM:   2    -0.231638681180E+04   -0.21567E-01   -0.22785E-01  5849   0.245E-01    0.242E-01
RMM:   3    -0.231638830442E+04   -0.14926E-02   -0.23225E-02  5348   0.992E-02    0.162E-01
RMM:   4    -0.231638826107E+04    0.43350E-04   -0.25374E-03  4964   0.200E-02    0.117E-01
RMM:   5    -0.231638809618E+04    0.16489E-03   -0.61441E-04  4643   0.146E-02    0.739E-02
RMM:   6    -0.231638806554E+04    0.30637E-04   -0.26803E-04  4286   0.108E-02    0.398E-02
RMM:   7    -0.231638805820E+04    0.73387E-05   -0.40530E-05  2876   0.667E-03
  30 F= -.23368830E+04 E0= -.23368830E+04  d E =-.775824E-02  mag=     4.0000
       N       E                     dE             d eps       ncg     rms          rms(c)
DAV:   1    -0.231635571963E+04    0.32346E-01   -0.31290E+00  4408   0.174E+00    0.500E-01
RMM:   2    -0.231638970327E+04   -0.33984E-01   -0.35900E-01  5840   0.306E-01    0.305E-01
RMM:   3    -0.231639211599E+04   -0.24127E-02   -0.37371E-02  5375   0.125E-01    0.205E-01
RMM:   4    -0.231639204186E+04    0.74135E-04   -0.40071E-03  5265   0.249E-02    0.147E-01
RMM:   5    -0.231639178718E+04    0.25468E-03   -0.96489E-04  4871   0.176E-02    0.963E-02
RMM:   6    -0.231639172315E+04    0.64027E-04   -0.44859E-04  4642   0.130E-02    0.502E-02
RMM:   7    -0.231639171013E+04    0.13023E-04   -0.62465E-05  2984   0.799E-03    0.264E-02
RMM:   8    -0.231639171080E+04   -0.67239E-06   -0.27969E-05  2869   0.406E-03
  31 F= -.23368858E+04 E0= -.23368858E+04  d E =-.104840E-01  mag=     4.0000
       N       E                     dE             d eps       ncg     rms          rms(c)
DAV:   1    -0.231637212327E+04    0.19587E-01   -0.21391E+00  4432   0.143E+00    0.437E-01
RMM:   2    -0.231639848529E+04   -0.26362E-01   -0.27714E-01  5836   0.254E-01    0.262E-01
RMM:   3    -0.231640027900E+04   -0.17937E-02   -0.26383E-02  5425   0.102E-01    0.167E-01
RMM:   4    -0.231640025698E+04    0.22024E-04   -0.31750E-03  4929   0.214E-02    0.124E-01
RMM:   5    -0.231640007904E+04    0.17794E-03   -0.74340E-04  4799   0.166E-02    0.797E-02
RMM:   6    -0.231640004073E+04    0.38315E-04   -0.28619E-04  4398   0.108E-02    0.471E-02
RMM:   7    -0.231640002564E+04    0.15089E-04   -0.51297E-05  2865   0.677E-03    0.220E-02
RMM:   8    -0.231640002550E+04    0.14197E-06   -0.19897E-05  2859   0.361E-03
  32 F= -.23368932E+04 E0= -.23368932E+04  d E =-.747847E-02  mag=     4.0000
       N       E                     dE             d eps       ncg     rms          rms(c)
DAV:   1    -0.231638313071E+04    0.16895E-01   -0.15007E+00  4432   0.119E+00    0.365E-01
RMM:   2    -0.231640160354E+04   -0.18473E-01   -0.19423E-01  5846   0.213E-01    0.217E-01
RMM:   3    -0.231640285662E+04   -0.12531E-02   -0.18290E-02  5394   0.849E-02    0.138E-01
RMM:   4    -0.231640284331E+04    0.13312E-04   -0.22295E-03  4753   0.180E-02    0.103E-01
RMM:   5    -0.231640272012E+04    0.12319E-03   -0.52307E-04  4541   0.143E-02    0.664E-02
RMM:   6    -0.231640269328E+04    0.26842E-04   -0.19549E-04  4019   0.929E-03    0.389E-02
RMM:   7    -0.231640268281E+04    0.10462E-04   -0.35905E-05  2853   0.606E-03    0.181E-02
RMM:   8    -0.231640268287E+04   -0.55094E-07   -0.14301E-05  2857   0.320E-03
  33 F= -.23368952E+04 E0= -.23368952E+04  d E =-.942914E-02  mag=     4.0000
       N       E                     dE             d eps       ncg     rms          rms(c)
DAV:   1    -0.231638513480E+04    0.17548E-01   -0.17208E+00  4408   0.125E+00    0.421E-01
RMM:   2    -0.231640827479E+04   -0.23140E-01   -0.24481E-01  5891   0.227E-01    0.224E-01
RMM:   3    -0.231641007407E+04   -0.17993E-02   -0.24327E-02  5381   0.924E-02    0.134E-01
RMM:   4    -0.231641004894E+04    0.25134E-04   -0.28310E-03  4649   0.199E-02    0.936E-02
RMM:   5    -0.231640993474E+04    0.11420E-03   -0.57497E-04  4672   0.162E-02    0.497E-02
RMM:   6    -0.231640993267E+04    0.20695E-05   -0.13228E-04  3517   0.844E-03    0.425E-02
RMM:   7    -0.231640991649E+04    0.16183E-04   -0.33900E-05  2846   0.544E-03    0.139E-02
RMM:   8    -0.231640991574E+04    0.75164E-06   -0.11410E-05  2860   0.291E-03
  34 F= -.23369019E+04 E0= -.23369019E+04  d E =-.674955E-02  mag=     4.0000
       N       E                     dE             d eps       ncg     rms          rms(c)
DAV:   1    -0.231640146138E+04    0.84551E-02   -0.69284E-01  4480   0.796E-01    0.267E-01
RMM:   2    -0.231641079287E+04   -0.93315E-02   -0.98777E-02  5871   0.144E-01    0.141E-01
RMM:   3    -0.231641150683E+04   -0.71397E-03   -0.96800E-03  5248   0.571E-02    0.842E-02
RMM:   4    -0.231641149281E+04    0.14028E-04   -0.11427E-03  4203   0.128E-02    0.578E-02
RMM:   5    -0.231641144755E+04    0.45261E-04   -0.21921E-04  3995   0.108E-02    0.271E-02
RMM:   6    -0.231641145017E+04   -0.26266E-05   -0.46750E-05  2897   0.621E-03
  35 F= -.23369032E+04 E0= -.23369032E+04  d E =-.797436E-02  mag=     4.0000
       N       E                     dE             d eps       ncg     rms          rms(c)
DAV:   1    -0.231638105491E+04    0.30393E-01   -0.23311E+00  4408   0.142E+00    0.491E-01
RMM:   2    -0.231641536915E+04   -0.34314E-01   -0.36395E-01  5894   0.258E-01    0.273E-01
RMM:   3    -0.231641827479E+04   -0.29056E-02   -0.37318E-02  5475   0.104E-01    0.162E-01
RMM:   4    -0.231641825067E+04    0.24113E-04   -0.42679E-03  4725   0.224E-02    0.113E-01
RMM:   5    -0.231641804495E+04    0.20572E-03   -0.76146E-04  4811   0.173E-02    0.447E-02
RMM:   6    -0.231641805736E+04   -0.12403E-04   -0.15823E-04  3874   0.944E-03    0.489E-02
RMM:   7    -0.231641803370E+04    0.23654E-04   -0.42940E-05  2856   0.546E-03    0.150E-02
RMM:   8    -0.231641803164E+04    0.20605E-05   -0.12764E-05  2861   0.316E-03
  36 F= -.23369092E+04 E0= -.23369092E+04  d E =-.607079E-02  mag=     4.0000
       N       E                     dE             d eps       ncg     rms          rms(c)
DAV:   1    -0.231641284346E+04    0.51902E-02   -0.37156E-01  4576   0.567E-01    0.195E-01
RMM:   2    -0.231641832593E+04   -0.54825E-02   -0.58024E-02  5916   0.103E-01    0.107E-01
RMM:   3    -0.231641877460E+04   -0.44866E-03   -0.57903E-03  4971   0.407E-02    0.632E-02
RMM:   4    -0.231641876604E+04    0.85565E-05   -0.67781E-04  3432   0.942E-03    0.432E-02
RMM:   5    -0.231641875773E+04    0.83094E-05   -0.13483E-04  3320   0.770E-03    0.461E-02
RMM:   6    -0.231641873538E+04    0.22355E-04   -0.45442E-05  2869   0.580E-03    0.938E-03
RMM:   7    -0.231641873553E+04   -0.15882E-06   -0.99256E-06  2845   0.333E-03
  37 F= -.23369097E+04 E0= -.23369097E+04  d E =-.657157E-02  mag=     4.0000
       N       E                     dE             d eps       ncg     rms          rms(c)
DAV:   1    -0.231638588689E+04    0.32848E-01   -0.21971E+00  4408   0.136E+00    0.481E-01
RMM:   2    -0.231642141020E+04   -0.35523E-01   -0.37251E-01  5919   0.254E-01    0.288E-01
RMM:   3    -0.231642432110E+04   -0.29109E-02   -0.38420E-02  5516   0.106E-01    0.173E-01
RMM:   4    -0.231642435979E+04   -0.38689E-04   -0.43429E-03  4777   0.212E-02    0.125E-01
RMM:   5    -0.231642410411E+04    0.25568E-03   -0.76563E-04  4760   0.160E-02    0.717E-02
RMM:   6    -0.231642408851E+04    0.15602E-04   -0.31945E-04  4285   0.106E-02    0.569E-02
RMM:   7    -0.231642405655E+04    0.31960E-04   -0.74642E-05  2912   0.704E-03    0.179E-02
RMM:   8    -0.231642405243E+04    0.41161E-05   -0.14383E-05  2853   0.353E-03
  38 F= -.23369144E+04 E0= -.23369144E+04  d E =-.466418E-02  mag=     4.0000
       N       E                     dE             d eps       ncg     rms          rms(c)
DAV:   1    -0.231641488697E+04    0.91696E-02   -0.58191E-01  4480   0.701E-01    0.247E-01
RMM:   2    -0.231642430499E+04   -0.94180E-02   -0.98668E-02  5982   0.131E-01    0.146E-01
RMM:   3    -0.231642505987E+04   -0.75488E-03   -0.98716E-03  5262   0.535E-02    0.868E-02
RMM:   4    -0.231642506883E+04   -0.89662E-05   -0.11511E-03  3524   0.110E-02    0.640E-02
RMM:   5    -0.231642500249E+04    0.66339E-04   -0.21010E-04  3599   0.914E-03    0.359E-02
RMM:   6    -0.231642499958E+04    0.29110E-05   -0.81217E-05  2977   0.678E-03
  39 F= -.23369150E+04 E0= -.23369150E+04  d E =-.527719E-02  mag=     4.0000
       N       E                     dE             d eps       ncg     rms          rms(c)
DAV:   1    -0.231639002124E+04    0.34981E-01   -0.22105E+00  4440   0.135E+00    0.494E-01
RMM:   2    -0.231642717437E+04   -0.37153E-01   -0.38984E-01  6071   0.255E-01    0.306E-01
RMM:   3    -0.231643027513E+04   -0.31008E-02   -0.41269E-02  5520   0.104E-01    0.188E-01
RMM:   4    -0.231643031514E+04   -0.40007E-04   -0.46123E-03  4898   0.208E-02    0.133E-01
RMM:   5    -0.231643005738E+04    0.25776E-03   -0.66628E-04  4484   0.137E-02    0.844E-02
RMM:   6    -0.231643000586E+04    0.51521E-04   -0.43178E-04  4468   0.113E-02    0.530E-02
RMM:   7    -0.231642998089E+04    0.24972E-04   -0.78197E-05  2909   0.777E-03    0.187E-02
RMM:   8    -0.231642997759E+04    0.32972E-05   -0.15197E-05  2853   0.355E-03
  40 F= -.23369197E+04 E0= -.23369197E+04  d E =-.467899E-02  mag=     4.0000
       N       E                     dE             d eps       ncg     rms          rms(c)
DAV:   1    -0.231640018624E+04    0.29795E-01   -0.17198E+00  4452   0.119E+00    0.434E-01
RMM:   2    -0.231642906312E+04   -0.28877E-01   -0.30230E-01  6027   0.225E-01    0.264E-01
RMM:   3    -0.231643143223E+04   -0.23691E-02   -0.31462E-02  5546   0.918E-02    0.159E-01
RMM:   4    -0.231643147602E+04   -0.43799E-04   -0.35398E-03  4668   0.181E-02    0.114E-01
RMM:   5    -0.231643127018E+04    0.20584E-03   -0.54133E-04  4336   0.127E-02    0.689E-02
RMM:   6    -0.231643124674E+04    0.23440E-04   -0.30443E-04  4168   0.990E-03    0.513E-02
RMM:   7    -0.231643122178E+04    0.24962E-04   -0.69569E-05  2890   0.700E-03    0.175E-02
RMM:   8    -0.231643121858E+04    0.31999E-05   -0.12660E-05  2845   0.340E-03
  41 F= -.23369207E+04 E0= -.23369207E+04  d E =-.566265E-02  mag=     4.0000
       N       E                     dE             d eps       ncg     rms          rms(c)
DAV:   1    -0.231639786089E+04    0.33361E-01   -0.19801E+00  4408   0.123E+00    0.462E-01
RMM:   2    -0.231643200856E+04   -0.34148E-01   -0.35690E-01  6067   0.236E-01    0.280E-01
RMM:   3    -0.231643502185E+04   -0.30133E-02   -0.37801E-02  5538   0.942E-02    0.166E-01
RMM:   4    -0.231643510385E+04   -0.82005E-04   -0.42217E-03  4632   0.187E-02    0.120E-01
RMM:   5    -0.231643486702E+04    0.23684E-03   -0.60493E-04  4311   0.130E-02    0.685E-02
RMM:   6    -0.231643485573E+04    0.11292E-04   -0.31484E-04  4060   0.998E-03    0.573E-02
RMM:   7    -0.231643482455E+04    0.31171E-04   -0.81357E-05  2895   0.688E-03    0.185E-02
RMM:   8    -0.231643482070E+04    0.38506E-05   -0.13157E-05  2847   0.356E-03
  42 F= -.23369243E+04 E0= -.23369243E+04  d E =-.365113E-02  mag=     4.0000
       N       E                     dE             d eps       ncg     rms          rms(c)
DAV:   1    -0.231640393046E+04    0.30894E-01   -0.17099E+00  4436   0.115E+00    0.430E-01
RMM:   2    -0.231643342568E+04   -0.29495E-01   -0.30842E-01  6061   0.219E-01    0.260E-01
RMM:   3    -0.231643602347E+04   -0.25978E-02   -0.32589E-02  5520   0.875E-02    0.154E-01
RMM:   4    -0.231643609291E+04   -0.69439E-04   -0.36255E-03  4511   0.174E-02    0.112E-01
RMM:   5    -0.231643588964E+04    0.20327E-03   -0.52075E-04  4171   0.122E-02    0.643E-02
RMM:   6    -0.231643587865E+04    0.10991E-04   -0.27525E-04  3919   0.950E-03    0.535E-02
RMM:   7    -0.231643585135E+04    0.27297E-04   -0.70927E-05  2885   0.662E-03    0.171E-02
RMM:   8    -0.231643584829E+04    0.30579E-05   -0.11916E-05  2845   0.345E-03
  43 F= -.23369254E+04 E0= -.23369254E+04  d E =-.473374E-02  mag=     4.0000
       N       E                     dE             d eps       ncg     rms          rms(c)
DAV:   1    -0.231642149905E+04    0.14352E-01   -0.94443E-01  4496   0.877E-01    0.343E-01
RMM:   2    -0.231643715783E+04   -0.15659E-01   -0.16455E-01  5895   0.167E-01    0.180E-01
RMM:   3    -0.231643860178E+04   -0.14439E-02   -0.17822E-02  5301   0.710E-02    0.103E-01
RMM:   4    -0.231643860971E+04   -0.79300E-05   -0.19645E-03  4283   0.147E-02    0.723E-02
RMM:   5    -0.231643860616E+04    0.35524E-05   -0.35817E-04  3986   0.112E-02    0.908E-02
RMM:   6    -0.231643851594E+04    0.90216E-04   -0.15611E-04  3179   0.798E-03    0.158E-02
RMM:   7    -0.231643851728E+04   -0.13451E-05   -0.34553E-05  2872   0.518E-03
  44 F= -.23369281E+04 E0= -.23369281E+04  d E =-.271880E-02  mag=     4.0000
       N       E                     dE             d eps       ncg     rms          rms(c)
DAV:   1    -0.231643405682E+04    0.44591E-02   -0.25864E-01  4656   0.459E-01    0.181E-01
RMM:   2    -0.231643836537E+04   -0.43086E-02   -0.45420E-02  5856   0.882E-02    0.935E-02
RMM:   3    -0.231643876304E+04   -0.39767E-03   -0.48638E-03  4742   0.382E-02    0.536E-02
RMM:   4    -0.231643876626E+04   -0.32171E-05   -0.55146E-04  3069   0.812E-03    0.385E-02
RMM:   5    -0.231643876744E+04   -0.11837E-05   -0.10103E-04  2951   0.623E-03    0.494E-02
RMM:   6    -0.231643874105E+04    0.26391E-04   -0.47194E-05  2879   0.554E-03    0.915E-03
RMM:   7    -0.231643874112E+04   -0.73225E-07   -0.12158E-05  2845   0.370E-03
  45 F= -.23369284E+04 E0= -.23369284E+04  d E =-.297003E-02  mag=     4.0000
       N       E                     dE             d eps       ncg     rms          rms(c)
DAV:   1    -0.231642067845E+04    0.18063E-01   -0.10892E+00  4408   0.902E-01    0.350E-01
RMM:   2    -0.231643980334E+04   -0.19125E-01   -0.20028E-01  6038   0.171E-01    0.195E-01
RMM:   3    -0.231644165174E+04   -0.18484E-02   -0.21778E-02  5350   0.705E-02    0.112E-01
RMM:   4    -0.231644168116E+04   -0.29419E-04   -0.24134E-03  4127   0.145E-02    0.839E-02
RMM:   5    -0.231644167108E+04    0.10076E-04   -0.38378E-04  3574   0.102E-02    0.100E-01
RMM:   6    -0.231644156085E+04    0.11024E-03   -0.22716E-04  3603   0.867E-03    0.189E-02
RMM:   7    -0.231644156104E+04   -0.19083E-06   -0.38392E-05  2886   0.556E-03
  46 F= -.23369311E+04 E0= -.23369311E+04  d E =-.272491E-02  mag=     4.0000
       N       E                     dE             d eps       ncg     rms          rms(c)
DAV:   1    -0.231642072185E+04    0.20839E-01   -0.11353E+00  4408   0.921E-01    0.358E-01
RMM:   2    -0.231644065599E+04   -0.19934E-01   -0.20910E-01  6011   0.176E-01    0.200E-01
RMM:   3    -0.231644259637E+04   -0.19404E-02   -0.22801E-02  5351   0.717E-02    0.115E-01
RMM:   4    -0.231644263204E+04   -0.35666E-04   -0.25369E-03  4168   0.147E-02    0.866E-02
RMM:   5    -0.231644262037E+04    0.11663E-04   -0.39128E-04  3555   0.102E-02    0.103E-01
RMM:   6    -0.231644250416E+04    0.11621E-03   -0.24548E-04  3747   0.887E-03    0.203E-02
RMM:   7    -0.231644250382E+04    0.34308E-06   -0.42564E-05  2894   0.571E-03
  47 F= -.23369320E+04 E0= -.23369320E+04  d E =-.357543E-02  mag=     4.0000
       N       E                     dE             d eps       ncg     rms          rms(c)
DAV:   1    -0.231642341400E+04    0.19090E-01   -0.12428E+00  4408   0.984E-01    0.379E-01
RMM:   2    -0.231644394913E+04   -0.20535E-01   -0.21486E-01  6005   0.190E-01    0.213E-01
RMM:   3    -0.231644569178E+04   -0.17426E-02   -0.21935E-02  5463   0.742E-02    0.125E-01
RMM:   4    -0.231644572218E+04   -0.30404E-04   -0.25371E-03  4324   0.155E-02    0.896E-02
RMM:   5    -0.231644559618E+04    0.12600E-03   -0.42177E-04  4279   0.121E-02    0.483E-02
RMM:   6    -0.231644559598E+04    0.19989E-06   -0.14270E-04  3143   0.816E-03    0.415E-02
RMM:   7    -0.231644557921E+04    0.16766E-04   -0.38992E-05  2869   0.559E-03    0.114E-02
RMM:   8    -0.231644557788E+04    0.13368E-05   -0.80075E-06  2848   0.295E-03
  48 F= -.23369348E+04 E0= -.23369348E+04  d E =-.287629E-02  mag=     4.0000
       N       E                     dE             d eps       ncg     rms          rms(c)
DAV:   1    -0.231640893451E+04    0.36645E-01   -0.20939E+00  4408   0.128E+00    0.490E-01
RMM:   2    -0.231644341285E+04   -0.34478E-01   -0.36001E-01  6014   0.247E-01    0.278E-01
RMM:   3    -0.231644634171E+04   -0.29289E-02   -0.37085E-02  5534   0.932E-02    0.164E-01
RMM:   4    -0.231644638016E+04   -0.38448E-04   -0.42130E-03  4663   0.199E-02    0.116E-01
RMM:   5    -0.231644614854E+04    0.23162E-03   -0.70678E-04  4732   0.153E-02    0.547E-02
RMM:   6    -0.231644615716E+04   -0.86215E-05   -0.21218E-04  3779   0.959E-03    0.537E-02
RMM:   7    -0.231644612959E+04    0.27575E-04   -0.66960E-05  2903   0.601E-03    0.157E-02
RMM:   8    -0.231644612647E+04    0.31143E-05   -0.11924E-05  2858   0.334E-03
  49 F= -.23369351E+04 E0= -.23369351E+04  d E =-.317581E-02  mag=     4.0000
       N       E                     dE             d eps       ncg     rms          rms(c)
DAV:   1    -0.231643996981E+04    0.61598E-02   -0.36409E-01  4448   0.534E-01    0.203E-01
RMM:   2    -0.231644598976E+04   -0.60199E-02   -0.62892E-02  6015   0.103E-01    0.110E-01
RMM:   3    -0.231644641954E+04   -0.42978E-03   -0.52688E-03  4983   0.382E-02    0.692E-02
RMM:   4    -0.231644641862E+04    0.91808E-06   -0.65319E-04  3025   0.896E-03    0.569E-02
RMM:   5    -0.231644638082E+04    0.37801E-04   -0.12281E-04  3089   0.685E-03    0.356E-02
RMM:   6    -0.231644636863E+04    0.12190E-04   -0.55019E-05  2933   0.602E-03    0.121E-02
RMM:   7    -0.231644636830E+04    0.32876E-06   -0.83094E-06  2837   0.426E-03
  50 F= -.23369355E+04 E0= -.23369355E+04  d E =-.352053E-02  mag=     4.0000
       N       E                     dE             d eps       ncg     rms          rms(c)
DAV:   1    -0.231642109791E+04    0.25271E-01   -0.13834E+00  4420   0.101E+00    0.410E-01
RMM:   2    -0.231644719751E+04   -0.26100E-01   -0.27381E-01  6077   0.207E-01    0.240E-01
RMM:   3    -0.231644945603E+04   -0.22585E-02   -0.28374E-02  5597   0.779E-02    0.147E-01
RMM:   4    -0.231644950716E+04   -0.51124E-04   -0.31551E-03  4367   0.163E-02    0.108E-01
RMM:   5    -0.231644935281E+04    0.15434E-03   -0.52233E-04  4219   0.117E-02    0.770E-02
RMM:   6    -0.231644929773E+04    0.55087E-04   -0.30362E-04  4137   0.939E-03    0.414E-02
RMM:   7    -0.231644928023E+04    0.17496E-04   -0.44954E-05  2871   0.638E-03    0.124E-02
RMM:   8    -0.231644927734E+04    0.28946E-05   -0.10249E-05  2860   0.309E-03
  51 F= -.23369382E+04 E0= -.23369382E+04  d E =-.273032E-02  mag=     4.0000
       N       E                     dE             d eps       ncg     rms          rms(c)
DAV:   1    -0.231644140177E+04    0.78785E-02   -0.41174E-01  4420   0.550E-01    0.224E-01
RMM:   2    -0.231644912536E+04   -0.77236E-02   -0.80972E-02  6110   0.114E-01    0.128E-01
RMM:   3    -0.231644978706E+04   -0.66170E-03   -0.81947E-03  5120   0.421E-02    0.775E-02
RMM:   4    -0.231644980546E+04   -0.18406E-04   -0.93906E-04  3027   0.930E-03    0.581E-02
RMM:   5    -0.231644976028E+04    0.45187E-04   -0.15664E-04  3132   0.707E-03    0.407E-02
RMM:   6    -0.231644974611E+04    0.14170E-04   -0.85492E-05  3005   0.628E-03    0.232E-02
RMM:   7    -0.231644974062E+04    0.54863E-05   -0.16900E-05  2848   0.471E-03
  52 F= -.23369386E+04 E0= -.23369386E+04  d E =-.309930E-02  mag=     4.0000
       N       E                     dE             d eps       ncg     rms          rms(c)
DAV:   1    -0.231642526772E+04    0.24478E-01   -0.12788E+00  4408   0.962E-01    0.397E-01
RMM:   2    -0.231645027224E+04   -0.25005E-01   -0.26247E-01  6165   0.202E-01    0.230E-01
RMM:   3    -0.231645235849E+04   -0.20862E-02   -0.25922E-02  5563   0.765E-02    0.144E-01
RMM:   4    -0.231645242613E+04   -0.67637E-04   -0.30357E-03  4197   0.163E-02    0.108E-01
RMM:   5    -0.231645229625E+04    0.12987E-03   -0.47253E-04  4073   0.111E-02    0.792E-02
RMM:   6    -0.231645223475E+04    0.61504E-04   -0.29630E-04  4135   0.937E-03    0.357E-02
RMM:   7    -0.231645222246E+04    0.12285E-04   -0.35890E-05  2860   0.625E-03    0.109E-02
RMM:   8    -0.231645222054E+04    0.19204E-05   -0.93235E-06  2858   0.290E-03
  53 F= -.23369411E+04 E0= -.23369411E+04  d E =-.254327E-02  mag=     4.0000
       N       E                     dE             d eps       ncg     rms          rms(c)
DAV:   1    -0.231644071770E+04    0.11505E-01   -0.54412E-01  4464   0.628E-01    0.261E-01
RMM:   2    -0.231645176573E+04   -0.11048E-01   -0.11603E-01  6115   0.132E-01    0.149E-01
RMM:   3    -0.231645252002E+04   -0.75429E-03   -0.93542E-03  5332   0.452E-02    0.951E-02
RMM:   4    -0.231645253160E+04   -0.11577E-04   -0.11687E-03  3112   0.107E-02    0.743E-02
RMM:   5    -0.231645246381E+04    0.67787E-04   -0.19250E-04  3192   0.783E-03    0.488E-02
RMM:   6    -0.231645244166E+04    0.22149E-04   -0.12679E-04  3300   0.716E-03    0.197E-02
RMM:   7    -0.231645243772E+04    0.39422E-05   -0.15743E-05  2841   0.514E-03
  54 F= -.23369414E+04 E0= -.23369414E+04  d E =-.280474E-02  mag=     4.0000
       N       E                     dE             d eps       ncg     rms          rms(c)
DAV:   1    -0.231643404879E+04    0.18393E-01   -0.99293E-01  4420   0.863E-01    0.348E-01
RMM:   2    -0.231645282356E+04   -0.18775E-01   -0.19762E-01  6089   0.176E-01    0.191E-01
RMM:   3    -0.231645434143E+04   -0.15179E-02   -0.18776E-02  5492   0.674E-02    0.114E-01
RMM:   4    -0.231645439673E+04   -0.55301E-04   -0.22452E-03  3975   0.144E-02    0.900E-02
RMM:   5    -0.231645432143E+04    0.75306E-04   -0.35517E-04  3746   0.101E-02    0.701E-02
RMM:   6    -0.231645427385E+04    0.47581E-04   -0.19105E-04  3734   0.831E-03    0.255E-02
RMM:   7    -0.231645426893E+04    0.49204E-05   -0.18116E-05  2850   0.536E-03
  55 F= -.23369434E+04 E0= -.23369434E+04  d E =-.199557E-02  mag=     4.0000
       N       E                     dE             d eps       ncg     rms          rms(c)
DAV:   1    -0.231643965878E+04    0.14615E-01   -0.73167E-01  4420   0.740E-01    0.299E-01
RMM:   2    -0.231645351173E+04   -0.13853E-01   -0.14590E-01  6075   0.151E-01    0.164E-01
RMM:   3    -0.231645462817E+04   -0.11164E-02   -0.13777E-02  5429   0.576E-02    0.975E-02
RMM:   4    -0.231645466905E+04   -0.40876E-04   -0.16506E-03  3498   0.124E-02    0.768E-02
RMM:   5    -0.231645461628E+04    0.52762E-04   -0.26245E-04  3429   0.899E-03    0.603E-02
RMM:   6    -0.231645458155E+04    0.34731E-04   -0.14184E-04  3345   0.756E-03    0.220E-02
RMM:   7    -0.231645457760E+04    0.39559E-05   -0.14648E-05  2848   0.509E-03
  56 F= -.23369438E+04 E0= -.23369438E+04  d E =-.244729E-02  mag=     4.0000
       N       E                     dE             d eps       ncg     rms          rms(c)
DAV:   1    -0.231644275636E+04    0.11825E-01   -0.76315E-01  4420   0.763E-01    0.296E-01
RMM:   2    -0.231645541417E+04   -0.12658E-01   -0.13400E-01  6021   0.152E-01    0.159E-01
RMM:   3    -0.231645657046E+04   -0.11563E-02   -0.14288E-02  5436   0.618E-02    0.933E-02
RMM:   4    -0.231645657857E+04   -0.81072E-05   -0.15649E-03  4120   0.136E-02    0.631E-02
RMM:   5    -0.231645654398E+04    0.34590E-04   -0.25160E-04  3882   0.104E-02    0.437E-02
RMM:   6    -0.231645652851E+04    0.15470E-04   -0.69649E-05  2919   0.662E-03    0.213E-02
RMM:   7    -0.231645652447E+04    0.40386E-05   -0.11319E-05  2840   0.377E-03
  57 F= -.23369459E+04 E0= -.23369459E+04  d E =-.208090E-02  mag=     4.0000
       N       E                     dE             d eps       ncg     rms          rms(c)
DAV:   1    -0.231645083696E+04    0.56916E-02   -0.32084E-01  4464   0.495E-01    0.192E-01
RMM:   2    -0.231645616375E+04   -0.53268E-02   -0.56402E-02  5990   0.993E-02    0.103E-01
RMM:   3    -0.231645664860E+04   -0.48485E-03   -0.59994E-03  5015   0.408E-02    0.608E-02
RMM:   4    -0.231645665342E+04   -0.48186E-05   -0.66644E-04  3208   0.929E-03    0.424E-02
RMM:   5    -0.231645665043E+04    0.29871E-05   -0.12011E-04  3070   0.710E-03    0.455E-02
RMM:   6    -0.231645662940E+04    0.21031E-04   -0.44120E-05  2878   0.574E-03    0.874E-03
RMM:   7    -0.231645662914E+04    0.25477E-06   -0.90045E-06  2845   0.331E-03
  58 F= -.23369461E+04 E0= -.23369461E+04  d E =-.227300E-02  mag=     4.0000
       N       E                     dE             d eps       ncg     rms          rms(c)
DAV:   1    -0.231644487309E+04    0.11756E-01   -0.88991E-01  4420   0.843E-01    0.299E-01
RMM:   2    -0.231645734666E+04   -0.12474E-01   -0.13156E-01  5983   0.160E-01    0.165E-01
RMM:   3    -0.231645835601E+04   -0.10093E-02   -0.13079E-02  5351   0.627E-02    0.984E-02
RMM:   4    -0.231645834263E+04    0.13376E-04   -0.14880E-03  4156   0.139E-02    0.669E-02
RMM:   5    -0.231645829133E+04    0.51303E-04   -0.28958E-04  4168   0.112E-02    0.351E-02
RMM:   6    -0.231645828624E+04    0.50864E-05   -0.63210E-05  2919   0.665E-03
  59 F= -.23369477E+04 E0= -.23369477E+04  d E =-.156980E-02  mag=     4.0000
       N       E                     dE             d eps       ncg     rms          rms(c)
DAV:   1    -0.231645400510E+04    0.42862E-02   -0.28582E-01  4420   0.479E-01    0.172E-01
RMM:   2    -0.231645801616E+04   -0.40111E-02   -0.42585E-02  5987   0.905E-02    0.943E-02
RMM:   3    -0.231645835454E+04   -0.33837E-03   -0.43306E-03  4592   0.349E-02    0.570E-02
RMM:   4    -0.231645836025E+04   -0.57067E-05   -0.50430E-04  3096   0.842E-03    0.470E-02
RMM:   5    -0.231645834544E+04    0.14807E-04   -0.10476E-04  3019   0.637E-03    0.382E-02
RMM:   6    -0.231645833095E+04    0.14484E-04   -0.44200E-05  2906   0.546E-03    0.766E-03
RMM:   7    -0.231645833044E+04    0.51671E-06   -0.63853E-06  2831   0.386E-03
  60 F= -.23369477E+04 E0= -.23369477E+04  d E =-.156513E-02  mag=     4.0000
       N       E                     dE             d eps       ncg     rms          rms(c)
DAV:   1    -0.231645080542E+04    0.75255E-02   -0.64538E-01  4420   0.739E-01    0.249E-01
RMM:   2    -0.231645957581E+04   -0.87704E-02   -0.92378E-02  6037   0.139E-01    0.144E-01
RMM:   3    -0.231646027217E+04   -0.69636E-03   -0.91084E-03  5283   0.504E-02    0.903E-02
RMM:   4    -0.231646028395E+04   -0.11782E-04   -0.10442E-03  3643   0.117E-02    0.716E-02
RMM:   5    -0.231646024384E+04    0.40112E-04   -0.24550E-04  3548   0.934E-03    0.553E-02
RMM:   6    -0.231646021438E+04    0.29463E-04   -0.10730E-04  3242   0.726E-03    0.154E-02
RMM:   7    -0.231646021232E+04    0.20619E-05   -0.10894E-05  2846   0.492E-03
  61 F= -.23369493E+04 E0= -.23369493E+04  d E =-.162624E-02  mag=     4.0000
       N       E                     dE             d eps       ncg     rms          rms(c)
DAV:   1    -0.231645143653E+04    0.87779E-02   -0.65236E-01  4420   0.744E-01    0.251E-01
RMM:   2    -0.231646031126E+04   -0.88747E-02   -0.93534E-02  5979   0.140E-01    0.146E-01
RMM:   3    -0.231646102072E+04   -0.70947E-03   -0.93062E-03  5281   0.537E-02    0.917E-02
RMM:   4    -0.231646103508E+04   -0.14363E-04   -0.10645E-03  3691   0.119E-02    0.730E-02
RMM:   5    -0.231646099187E+04    0.43209E-04   -0.24812E-04  3581   0.941E-03    0.552E-02
RMM:   6    -0.231646096272E+04    0.29159E-04   -0.10989E-04  3257   0.727E-03    0.158E-02
RMM:   7    -0.231646096043E+04    0.22894E-05   -0.11147E-05  2846   0.499E-03
  62 F= -.23369498E+04 E0= -.23369498E+04  d E =-.211810E-02  mag=     4.0000
       N       E                     dE             d eps       ncg     rms          rms(c)
DAV:   1    -0.231645807257E+04    0.28902E-02   -0.32476E-01  4420   0.564E-01    0.201E-01
RMM:   2    -0.231646219770E+04   -0.41251E-02   -0.44619E-02  5935   0.112E-01    0.110E-01
RMM:   3    -0.231646246730E+04   -0.26961E-03   -0.42334E-03  5219   0.436E-02    0.818E-02
RMM:   4    -0.231646244719E+04    0.20113E-04   -0.49570E-04  3521   0.102E-02    0.550E-02
RMM:   5    -0.231646240644E+04    0.40753E-04   -0.14505E-04  3621   0.875E-03    0.327E-02
RMM:   6    -0.231646239588E+04    0.10553E-04   -0.55551E-05  3098   0.663E-03    0.123E-02
RMM:   7    -0.231646239390E+04    0.19822E-05   -0.10266E-05  2830   0.503E-03
  63 F= -.23369511E+04 E0= -.23369511E+04  d E =-.127685E-02  mag=     4.0000
       N       E                     dE             d eps       ncg     rms          rms(c)
DAV:   1    -0.231646222835E+04    0.16754E-03   -0.16893E-02  5024   0.129E-01    0.462E-02
RMM:   2    -0.231646244773E+04   -0.21939E-03   -0.23658E-03  5957   0.269E-02    0.260E-02
RMM:   3    -0.231646246152E+04   -0.13790E-04   -0.22422E-04  2920   0.109E-02    0.195E-02
RMM:   4    -0.231646246017E+04    0.13532E-05   -0.27323E-05  2864   0.315E-03
  64 F= -.23369511E+04 E0= -.23369511E+04  d E =-.130734E-02  mag=     4.0000
       N       E                     dE             d eps       ncg     rms          rms(c)
DAV:   1    -0.231646138098E+04    0.10805E-02   -0.15440E-01  4432   0.388E-01    0.126E-01
RMM:   2    -0.231646325434E+04   -0.18734E-02   -0.20181E-02  5988   0.762E-02    0.849E-02
RMM:   3    -0.231646336210E+04   -0.10776E-03   -0.18818E-03  4355   0.280E-02    0.659E-02
RMM:   4    -0.231646333844E+04    0.23659E-04   -0.21955E-04  2916   0.725E-03    0.354E-02
RMM:   5    -0.231646331885E+04    0.19590E-04   -0.60614E-05  3077   0.597E-03    0.171E-02
RMM:   6    -0.231646331829E+04    0.56310E-06   -0.18772E-05  2877   0.512E-03
  65 F= -.23369519E+04 E0= -.23369519E+04  d E =-.788346E-03  mag=     4.0000
       N       E                     dE             d eps       ncg     rms          rms(c)
DAV:   1    -0.231646185573E+04    0.14631E-02   -0.13386E-01  4420   0.361E-01    0.118E-01
RMM:   2    -0.231646348009E+04   -0.16244E-02   -0.17637E-02  5828   0.708E-02    0.747E-02
RMM:   3    -0.231646358267E+04   -0.10258E-03   -0.16621E-03  4389   0.279E-02    0.582E-02
RMM:   4    -0.231646356759E+04    0.15079E-04   -0.18950E-04  2905   0.668E-03    0.325E-02
RMM:   5    -0.231646355167E+04    0.15926E-04   -0.47526E-05  2932   0.531E-03    0.174E-02
RMM:   6    -0.231646355009E+04    0.15722E-05   -0.18380E-05  2880   0.471E-03
  66 F= -.23369520E+04 E0= -.23369520E+04  d E =-.955384E-03  mag=     4.0000
       N       E                     dE             d eps       ncg     rms          rms(c)
DAV:   1    -0.231646286081E+04    0.69086E-03   -0.12490E-01  4464   0.355E-01    0.106E-01
RMM:   2    -0.231646421636E+04   -0.13556E-02   -0.14601E-02  5981   0.662E-02    0.654E-02
RMM:   3    -0.231646429356E+04   -0.77198E-04   -0.12692E-03  4176   0.249E-02    0.540E-02
RMM:   4    -0.231646428073E+04    0.12835E-04   -0.15521E-04  2883   0.637E-03    0.300E-02
RMM:   5    -0.231646426812E+04    0.12611E-04   -0.40866E-05  2912   0.506E-03    0.152E-02
RMM:   6    -0.231646426785E+04    0.26741E-06   -0.13889E-05  2867   0.435E-03
  67 F= -.23369527E+04 E0= -.23369527E+04  d E =-.652776E-03  mag=     4.0000
       N       E                     dE             d eps       ncg     rms          rms(c)
DAV:   1    -0.231646128804E+04    0.29801E-02   -0.30172E-01  4420   0.551E-01    0.164E-01
RMM:   2    -0.231646455548E+04   -0.32674E-02   -0.35151E-02  5852   0.102E-01    0.100E-01
RMM:   3    -0.231646474169E+04   -0.18621E-03   -0.30470E-03  4985   0.383E-02    0.816E-02
RMM:   4    -0.231646471488E+04    0.26807E-04   -0.37011E-04  3036   0.868E-03    0.466E-02
RMM:   5    -0.231646468438E+04    0.30502E-04   -0.97268E-05  3321   0.741E-03    0.242E-02
RMM:   6    -0.231646468225E+04    0.21289E-05   -0.33341E-05  2904   0.597E-03
  68 F= -.23369530E+04 E0= -.23369530E+04  d E =-.967212E-03  mag=     4.0000
       N       E                     dE             d eps       ncg     rms          rms(c)
DAV:   1    -0.231646374893E+04    0.93545E-03   -0.15360E-01  4420   0.389E-01    0.114E-01
RMM:   2    -0.231646546200E+04   -0.17131E-02   -0.18380E-02  5937   0.728E-02    0.691E-02
RMM:   3    -0.231646557928E+04   -0.11728E-03   -0.17520E-03  4346   0.276E-02    0.586E-02
RMM:   4    -0.231646556674E+04    0.12541E-04   -0.19551E-04  2902   0.680E-03    0.360E-02
RMM:   5    -0.231646554912E+04    0.17623E-04   -0.60560E-05  2993   0.556E-03    0.175E-02
RMM:   6    -0.231646554869E+04    0.42922E-06   -0.19170E-05  2873   0.475E-03
  69 F= -.23369538E+04 E0= -.23369538E+04  d E =-.795209E-03  mag=     4.0000
       N       E                     dE             d eps       ncg     rms          rms(c)
DAV:   1    -0.231646099570E+04    0.45534E-02   -0.43806E-01  4420   0.657E-01    0.192E-01
RMM:   2    -0.231646586169E+04   -0.48660E-02   -0.52154E-02  5853   0.121E-01    0.115E-01
RMM:   3    -0.231646618641E+04   -0.32472E-03   -0.49394E-03  5168   0.481E-02    0.942E-02
RMM:   4    -0.231646616110E+04    0.25307E-04   -0.55778E-04  3249   0.103E-02    0.607E-02
RMM:   5    -0.231646611125E+04    0.49856E-04   -0.17323E-04  3761   0.905E-03    0.311E-02
RMM:   6    -0.231646610677E+04    0.44740E-05   -0.51592E-05  3000   0.668E-03
  70 F= -.23369543E+04 E0= -.23369543E+04  d E =-.123548E-02  mag=     4.0000
       N       E                     dE             d eps       ncg     rms          rms(c)
DAV:   1    -0.231646426722E+04    0.18440E-02   -0.26104E-01  4420   0.499E-01    0.149E-01
RMM:   2    -0.231646693429E+04   -0.26671E-02   -0.28634E-02  5925   0.927E-02    0.872E-02
RMM:   3    -0.231646710091E+04   -0.16663E-03   -0.26713E-03  4984   0.358E-02    0.713E-02
RMM:   4    -0.231646708409E+04    0.16824E-04   -0.30951E-04  2967   0.810E-03    0.486E-02
RMM:   5    -0.231646705428E+04    0.29805E-04   -0.11329E-04  3362   0.727E-03    0.229E-02
RMM:   6    -0.231646705278E+04    0.15054E-05   -0.28093E-05  2900   0.567E-03
  71 F= -.23369551E+04 E0= -.23369551E+04  d E =-.831114E-03  mag=     4.0000
       N       E                     dE             d eps       ncg     rms          rms(c)
DAV:   1    -0.231646623842E+04    0.81587E-03   -0.90851E-02  4512   0.295E-01    0.885E-02
RMM:   2    -0.231646717262E+04   -0.93420E-03   -0.10036E-02  6091   0.555E-02    0.520E-02
RMM:   3    -0.231646723142E+04   -0.58803E-04   -0.94882E-04  3705   0.203E-02    0.423E-02
RMM:   4    -0.231646722539E+04    0.60349E-05   -0.10954E-04  2888   0.572E-03    0.287E-02
RMM:   5    -0.231646721492E+04    0.10471E-04   -0.41895E-05  2929   0.469E-03    0.145E-02
RMM:   6    -0.231646721400E+04    0.91587E-06   -0.12067E-05  2867   0.402E-03
  72 F= -.23369552E+04 E0= -.23369552E+04  d E =-.925368E-03  mag=     4.0000
       N       E                     dE             d eps       ncg     rms          rms(c)
DAV:   1    -0.231646625098E+04    0.96394E-03   -0.18836E-01  4420   0.427E-01    0.130E-01
RMM:   2    -0.231646792809E+04   -0.16771E-02   -0.18144E-02  5861   0.779E-02    0.760E-02
RMM:   3    -0.231646802779E+04   -0.99697E-04   -0.16779E-03  4486   0.309E-02    0.596E-02
RMM:   4    -0.231646801333E+04    0.14459E-04   -0.20829E-04  2937   0.741E-03    0.392E-02
RMM:   5    -0.231646799492E+04    0.18403E-04   -0.78155E-05  3128   0.674E-03    0.202E-02
RMM:   6    -0.231646799247E+04    0.24514E-05   -0.20766E-05  2870   0.542E-03
  73 F= -.23369558E+04 E0= -.23369558E+04  d E =-.621535E-03  mag=     4.0000
       N       E                     dE             d eps       ncg     rms          rms(c)
DAV:   1    -0.231646767886E+04    0.31606E-03   -0.47850E-02  4560   0.216E-01    0.664E-02
RMM:   2    -0.231646811223E+04   -0.43337E-03   -0.46854E-03  6024   0.404E-02    0.391E-02
RMM:   3    -0.231646813742E+04   -0.25195E-04   -0.42926E-04  3315   0.147E-02    0.315E-02
RMM:   4    -0.231646813295E+04    0.44702E-05   -0.54698E-05  2873   0.446E-03
  74 F= -.23369559E+04 E0= -.23369559E+04  d E =-.682946E-03  mag=     4.0000
       N       E                     dE             d eps       ncg     rms          rms(c)
DAV:   1    -0.231646734046E+04    0.79696E-03   -0.18095E-01  4452   0.429E-01    0.136E-01
RMM:   2    -0.231646883700E+04   -0.14965E-02   -0.16361E-02  5871   0.775E-02    0.829E-02
RMM:   3    -0.231646892370E+04   -0.86707E-04   -0.16116E-03  4558   0.312E-02    0.703E-02
RMM:   4    -0.231646889034E+04    0.33362E-04   -0.20031E-04  2973   0.771E-03    0.370E-02
RMM:   5    -0.231646887050E+04    0.19844E-04   -0.73127E-05  3392   0.696E-03    0.163E-02
RMM:   6    -0.231646887022E+04    0.27951E-06   -0.16112E-05  2874   0.545E-03
  75 F= -.23369565E+04 E0= -.23369565E+04  d E =-.591179E-03  mag=     4.0000
       N       E                     dE             d eps       ncg     rms          rms(c)
DAV:   1    -0.231646870162E+04    0.16888E-03   -0.27468E-02  4704   0.167E-01    0.533E-02
RMM:   2    -0.231646893522E+04   -0.23360E-03   -0.25521E-03  6002   0.317E-02    0.306E-02
RMM:   3    -0.231646894868E+04   -0.13456E-04   -0.24574E-04  3075   0.122E-02    0.254E-02
RMM:   4    -0.231646894506E+04    0.36184E-05   -0.31401E-05  2867   0.374E-03
  76 F= -.23369565E+04 E0= -.23369565E+04  d E =-.609085E-03  mag=     4.0000
       N       E                     dE             d eps       ncg     rms          rms(c)
DAV:   1    -0.231646815079E+04    0.79789E-03   -0.16417E-01  4420   0.411E-01    0.124E-01
RMM:   2    -0.231646948069E+04   -0.13299E-02   -0.14486E-02  5826   0.731E-02    0.756E-02
RMM:   3    -0.231646955579E+04   -0.75104E-04   -0.13962E-03  4397   0.296E-02    0.632E-02
RMM:   4    -0.231646953160E+04    0.24191E-04   -0.17872E-04  2918   0.729E-03    0.349E-02
RMM:   5    -0.231646951434E+04    0.17260E-04   -0.63090E-05  3250   0.648E-03    0.162E-02
RMM:   6    -0.231646951419E+04    0.15585E-06   -0.14929E-05  2863   0.525E-03
  77 F= -.23369569E+04 E0= -.23369569E+04  d E =-.472633E-03  mag=     4.0000
       N       E                     dE             d eps       ncg     rms          rms(c)
DAV:   1    -0.231646929668E+04    0.21767E-03   -0.32810E-02  4496   0.184E-01    0.559E-02
RMM:   2    -0.231646956877E+04   -0.27209E-03   -0.29672E-03  5950   0.339E-02    0.328E-02
RMM:   3    -0.231646958457E+04   -0.15805E-04   -0.28227E-04  3127   0.130E-02    0.271E-02
RMM:   4    -0.231646958080E+04    0.37731E-05   -0.36919E-05  2870   0.389E-03
  78 F= -.23369570E+04 E0= -.23369570E+04  d E =-.496182E-03  mag=     4.0000
       N       E                     dE             d eps       ncg     rms          rms(c)
DAV:   1    -0.231646884507E+04    0.73950E-03   -0.15232E-01  4420   0.402E-01    0.125E-01
RMM:   2    -0.231647000008E+04   -0.11550E-02   -0.12596E-02  5756   0.705E-02    0.677E-02
RMM:   3    -0.231647005252E+04   -0.52438E-04   -0.11208E-03  4325   0.287E-02    0.602E-02
RMM:   4    -0.231647003185E+04    0.20673E-04   -0.16119E-04  2947   0.741E-03    0.349E-02
RMM:   5    -0.231647001504E+04    0.16815E-04   -0.64631E-05  3362   0.678E-03    0.149E-02
RMM:   6    -0.231647001519E+04   -0.15600E-06   -0.12807E-05  2849   0.526E-03
  79 F= -.23369574E+04 E0= -.23369574E+04  d E =-.438309E-03  mag=     4.0000
       N       E                     dE             d eps       ncg     rms          rms(c)
DAV:   1    -0.231646998552E+04    0.29516E-04   -0.33716E-03  5200   0.603E-02    0.192E-02
RMM:   2    -0.231647001293E+04   -0.27410E-04   -0.29663E-04  4418   0.121E-02    0.999E-03
RMM:   3    -0.231647001478E+04   -0.18472E-05   -0.29199E-05  2819   0.600E-03
  80 F= -.23369574E+04 E0= -.23369574E+04  d E =-.438542E-03  mag=     4.0000
       N       E                     dE             d eps       ncg     rms          rms(c)
DAV:   1    -0.231646925539E+04    0.75754E-03   -0.10828E-01  4420   0.334E-01    0.105E-01
RMM:   2    -0.231647026889E+04   -0.10135E-02   -0.10934E-02  5735   0.610E-02    0.546E-02
RMM:   3    -0.231647031215E+04   -0.43260E-04   -0.96778E-04  3995   0.234E-02    0.379E-02
RMM:   4    -0.231647030779E+04    0.43672E-05   -0.13001E-04  2935   0.668E-03    0.309E-02
RMM:   5    -0.231647029989E+04    0.78962E-05   -0.52965E-05  2922   0.586E-03
  81 F= -.23369578E+04 E0= -.23369578E+04  d E =-.385127E-03  mag=     4.0000
       N       E                     dE             d eps       ncg     rms          rms(c)
DAV:   1    -0.231647021317E+04    0.94618E-04   -0.57609E-03  5104   0.777E-02    0.260E-02
RMM:   2    -0.231647026870E+04   -0.55531E-04   -0.62363E-04  5204   0.167E-02    0.132E-02
RMM:   3    -0.231647027288E+04   -0.41816E-05   -0.66882E-05  2841   0.692E-03
  82 F= -.23369578E+04 E0= -.23369578E+04  d E =-.381761E-03  mag=     4.0000
       N       E                     dE             d eps       ncg     rms          rms(c)
DAV:   1    -0.231646942191E+04    0.84679E-03   -0.11424E-01  4420   0.338E-01    0.105E-01
RMM:   2    -0.231647048902E+04   -0.10671E-02   -0.11402E-02  5749   0.613E-02    0.601E-02
RMM:   3    -0.231647054256E+04   -0.53540E-04   -0.10918E-03  3897   0.241E-02    0.514E-02
RMM:   4    -0.231647052922E+04    0.13348E-04   -0.13600E-04  2908   0.653E-03    0.336E-02
RMM:   5    -0.231647051261E+04    0.16602E-04   -0.60734E-05  3156   0.584E-03    0.128E-02
RMM:   6    -0.231647051306E+04   -0.44476E-06   -0.10390E-05  2851   0.471E-03
  83 F= -.23369581E+04 E0= -.23369581E+04  d E =-.317287E-03  mag=     4.0000
       N       E                     dE             d eps       ncg     rms          rms(c)
DAV:   1    -0.231647047121E+04    0.41406E-04   -0.28164E-03  5192   0.533E-02    0.173E-02
RMM:   2    -0.231647049876E+04   -0.27556E-04   -0.29845E-04  4021   0.109E-02    0.906E-03
RMM:   3    -0.231647050076E+04   -0.19968E-05   -0.30932E-05  2811   0.580E-03
  84 F= -.23369581E+04 E0= -.23369581E+04  d E =-.317258E-03  mag=     4.0000
       N       E                     dE             d eps       ncg     rms          rms(c)
DAV:   1    -0.231646998201E+04    0.51676E-03   -0.10407E-01  4414   0.326E-01    0.104E-01
RMM:   2    -0.231647080854E+04   -0.82653E-03   -0.89666E-03  5737   0.590E-02    0.522E-02
RMM:   3    -0.231647082820E+04   -0.19658E-04   -0.73352E-04  4043   0.223E-02    0.354E-02
RMM:   4    -0.231647082216E+04    0.60337E-05   -0.10849E-04  3036   0.669E-03    0.287E-02
RMM:   5    -0.231647081634E+04    0.58235E-05   -0.49324E-05  2935   0.595E-03
  85 F= -.23369584E+04 E0= -.23369584E+04  d E =-.327954E-03  mag=     4.0000
       N       E                     dE             d eps       ncg     rms          rms(c)
DAV:   1    -0.231647076835E+04    0.53813E-04   -0.43470E-03  5224   0.672E-02    0.228E-02
RMM:   2    -0.231647080478E+04   -0.36427E-04   -0.40680E-04  4946   0.143E-02    0.111E-02
RMM:   3    -0.231647080670E+04   -0.19247E-05   -0.39538E-05  2831   0.615E-03
  86 F= -.23369584E+04 E0= -.23369584E+04  d E =-.320912E-03  mag=     4.0000
       N       E                     dE             d eps       ncg     rms          rms(c)
DAV:   1    -0.231647035870E+04    0.44607E-03   -0.89100E-02  4420   0.294E-01    0.911E-02
RMM:   2    -0.231647110374E+04   -0.74504E-03   -0.80155E-03  5850   0.534E-02    0.530E-02
RMM:   3    -0.231647113555E+04   -0.31808E-04   -0.68942E-04  3672   0.190E-02    0.436E-02
RMM:   4    -0.231647112597E+04    0.95763E-05   -0.92889E-05  2886   0.568E-03
  87 F= -.23369587E+04 E0= -.23369587E+04  d E =-.300169E-03  mag=     4.0000
       N       E                     dE             d eps       ncg     rms          rms(c)
DAV:   1    -0.231647073378E+04    0.40177E-03   -0.50079E-02  4420   0.220E-01    0.696E-02
RMM:   2    -0.231647114590E+04   -0.41213E-03   -0.44880E-03  5936   0.396E-02    0.432E-02
RMM:   3    -0.231647116885E+04   -0.22947E-04   -0.44619E-04  3297   0.149E-02    0.395E-02
RMM:   4    -0.231647115820E+04    0.10651E-04   -0.55909E-05  2873   0.479E-03    0.215E-02
RMM:   5    -0.231647115217E+04    0.60289E-05   -0.26515E-05  2926   0.403E-03
  88 F= -.23369587E+04 E0= -.23369587E+04  d E =-.311884E-03  mag=     4.0000
       N       E                     dE             d eps       ncg     rms          rms(c)
DAV:   1    -0.231647092527E+04    0.23293E-03   -0.51947E-02  4420   0.218E-01    0.680E-02
RMM:   2    -0.231647138723E+04   -0.46196E-03   -0.50076E-03  6126   0.422E-02    0.364E-02
RMM:   3    -0.231647140927E+04   -0.22033E-04   -0.42975E-04  3297   0.141E-02    0.259E-02
RMM:   4    -0.231647140834E+04    0.92664E-06   -0.54660E-05  2879   0.437E-03
  89 F= -.23369590E+04 E0= -.23369590E+04  d E =-.270824E-03  mag=     4.0000
       N       E                     dE             d eps       ncg     rms          rms(c)
DAV:   1    -0.231647070310E+04    0.70616E-03   -0.87085E-02  4420   0.282E-01    0.891E-02
RMM:   2    -0.231647147496E+04   -0.77186E-03   -0.83293E-03  6006   0.521E-02    0.579E-02
RMM:   3    -0.231647151499E+04   -0.40026E-04   -0.77861E-04  3629   0.185E-02    0.504E-02
RMM:   4    -0.231647149825E+04    0.16736E-04   -0.96291E-05  2884   0.575E-03    0.276E-02
RMM:   5    -0.231647148804E+04    0.10219E-04   -0.44123E-05  3017   0.500E-03    0.102E-02
RMM:   6    -0.231647148853E+04   -0.49590E-06   -0.69234E-06  2836   0.410E-03
  90 F= -.23369591E+04 E0= -.23369591E+04  d E =-.370076E-03  mag=     4.0000
       N       E                     dE             d eps       ncg     rms          rms(c)
DAV:   1    -0.231647131016E+04    0.17788E-03   -0.43768E-02  4420   0.202E-01    0.688E-02
RMM:   2    -0.231647169819E+04   -0.38803E-03   -0.42485E-03  5846   0.383E-02    0.339E-02
RMM:   3    -0.231647171039E+04   -0.12204E-04   -0.33579E-04  3369   0.150E-02    0.234E-02
RMM:   4    -0.231647170971E+04    0.68251E-06   -0.49354E-05  2871   0.461E-03
  91 F= -.23369594E+04 E0= -.23369594E+04  d E =-.296748E-03  mag=     4.0000
       N       E                     dE             d eps       ncg     rms          rms(c)
DAV:   1    -0.231647138651E+04    0.32388E-03   -0.35466E-02  4452   0.182E-01    0.637E-02
RMM:   2    -0.231647170152E+04   -0.31501E-03   -0.34443E-03  5956   0.345E-02    0.402E-02
RMM:   3    -0.231647171737E+04   -0.15855E-04   -0.34343E-04  3242   0.140E-02    0.377E-02
RMM:   4    -0.231647170595E+04    0.11425E-04   -0.43627E-05  2865   0.449E-03    0.180E-02
RMM:   5    -0.231647170119E+04    0.47598E-05   -0.19986E-05  2901   0.377E-03
  92 F= -.23369595E+04 E0= -.23369595E+04  d E =-.356811E-03  mag=     4.0000
       N       E                     dE             d eps       ncg     rms          rms(c)
DAV:   1    -0.231647136375E+04    0.34220E-03   -0.45448E-02  4420   0.203E-01    0.693E-02
RMM:   2    -0.231647183111E+04   -0.46736E-03   -0.50826E-03  6117   0.406E-02    0.340E-02
RMM:   3    -0.231647185222E+04   -0.21108E-04   -0.41940E-04  3282   0.140E-02    0.224E-02
RMM:   4    -0.231647185158E+04    0.63208E-06   -0.55557E-05  2880   0.454E-03
  93 F= -.23369597E+04 E0= -.23369597E+04  d E =-.249543E-03  mag=     4.0000
       N       E                     dE             d eps       ncg     rms          rms(c)
DAV:   1    -0.231647155607E+04    0.29615E-03   -0.25037E-02  4480   0.151E-01    0.530E-02
RMM:   2    -0.231647181724E+04   -0.26117E-03   -0.28228E-03  6034   0.300E-02    0.355E-02
RMM:   3    -0.231647183359E+04   -0.16350E-04   -0.28868E-04  2988   0.113E-02    0.329E-02
RMM:   4    -0.231647182545E+04    0.81355E-05   -0.33586E-05  2853   0.393E-03
  94 F= -.23369598E+04 E0= -.23369598E+04  d E =-.297540E-03  mag=     4.0000
       N       E                     dE             d eps       ncg     rms          rms(c)
DAV:   1    -0.231647144946E+04    0.38413E-03   -0.62460E-02  4420   0.243E-01    0.818E-02
RMM:   2    -0.231647201869E+04   -0.56923E-03   -0.62344E-03  5895   0.459E-02    0.395E-02
RMM:   3    -0.231647203755E+04   -0.18864E-04   -0.50953E-04  3628   0.182E-02    0.251E-02
RMM:   4    -0.231647203243E+04    0.51199E-05   -0.77730E-05  2994   0.573E-03
  95 F= -.23369600E+04 E0= -.23369600E+04  d E =-.280597E-03  mag=     4.0000
       N       E                     dE             d eps       ncg     rms          rms(c)
DAV:   1    -0.231647188882E+04    0.14873E-03   -0.13724E-02  4768   0.114E-01    0.401E-02
RMM:   2    -0.231647202045E+04   -0.13162E-03   -0.14212E-03  5794   0.229E-02    0.291E-02
RMM:   3    -0.231647202577E+04   -0.53208E-05   -0.13977E-04  2901   0.916E-03    0.252E-02
RMM:   4    -0.231647202031E+04    0.54556E-05   -0.17202E-05  2843   0.318E-03
  96 F= -.23369601E+04 E0= -.23369601E+04  d E =-.303244E-03  mag=     4.0000
       N       E                     dE             d eps       ncg     rms          rms(c)
DAV:   1    -0.231647162239E+04    0.40337E-03   -0.72516E-02  4420   0.262E-01    0.838E-02
RMM:   2    -0.231647221845E+04   -0.59606E-03   -0.64953E-03  5837   0.480E-02    0.415E-02
RMM:   3    -0.231647223022E+04   -0.11764E-04   -0.47721E-04  3663   0.181E-02    0.265E-02
RMM:   4    -0.231647222331E+04    0.69065E-05   -0.81687E-05  3068   0.609E-03
  97 F= -.23369603E+04 E0= -.23369603E+04  d E =-.243221E-03  mag=     4.0000
       N       E                     dE             d eps       ncg     rms          rms(c)
DAV:   1    -0.231647216790E+04    0.62317E-04   -0.58034E-03  5144   0.744E-02    0.264E-02
RMM:   2    -0.231647221958E+04   -0.51675E-04   -0.55157E-04  5162   0.152E-02    0.218E-02
RMM:   3    -0.231647222047E+04   -0.89378E-06   -0.55842E-05  2866   0.638E-03
  98 F= -.23369603E+04 E0= -.23369603E+04  d E =-.251950E-03  mag=     4.0000
       N       E                     dE             d eps       ncg     rms          rms(c)
DAV:   1    -0.231647191886E+04    0.30072E-03   -0.75785E-02  4420   0.271E-01    0.912E-02
RMM:   2    -0.231647245088E+04   -0.53202E-03   -0.58772E-03  5830   0.493E-02    0.439E-02
RMM:   3    -0.231647245347E+04   -0.25920E-05   -0.45912E-04  3680   0.176E-02    0.274E-02
RMM:   4    -0.231647244537E+04    0.81025E-05   -0.80513E-05  3250   0.619E-03
  99 F= -.23369606E+04 E0= -.23369606E+04  d E =-.257413E-03  mag=     4.0000
       N       E                     dE             d eps       ncg     rms          rms(c)
DAV:   1    -0.231647241625E+04    0.37222E-04   -0.31700E-03  5352   0.559E-02    0.235E-02
RMM:   2    -0.231647244467E+04   -0.28424E-04   -0.27905E-04  4406   0.119E-02    0.264E-02
RMM:   3    -0.231647243966E+04    0.50081E-05   -0.29646E-05  2830   0.565E-03
 100 F= -.23369606E+04 E0= -.23369606E+04  d E =-.258495E-03  mag=     4.0000
       N       E                     dE             d eps       ncg     rms          rms(c)
DAV:   1    -0.231647214413E+04    0.30054E-03   -0.75800E-02  4420   0.261E-01    0.872E-02
RMM:   2    -0.231647265859E+04   -0.51446E-03   -0.56340E-03  5848   0.480E-02    0.434E-02
RMM:   3    -0.231647266463E+04   -0.60314E-05   -0.43713E-04  3637   0.167E-02    0.284E-02
RMM:   4    -0.231647266386E+04    0.76141E-06   -0.81459E-05  3003   0.586E-03
 101 F= -.23369608E+04 E0= -.23369608E+04  d E =-.255425E-03  mag=     4.0000
       N       E                     dE             d eps       ncg     rms          rms(c)
[...]
RMM:   2    -0.231647818205E+04   -0.16235E-04   -0.17160E-04  3191   0.787E-03    0.894E-03
RMM:   3    -0.231647818296E+04   -0.91025E-06   -0.19835E-05  2536   0.459E-03
 260 F= -.23369677E+04 E0= -.23369677E+04  d E =-.295525E-04  mag=     4.0000
       N       E                     dE             d eps       ncg     rms          rms(c)
DAV:   1    -0.231647818867E+04   -0.66255E-05   -0.86577E-04  4228   0.244E-02    0.109E-02
RMM:   2    -0.231647819724E+04   -0.85673E-05   -0.90158E-05  3047   0.572E-03
 261 F= -.23369677E+04 E0= -.23369677E+04  d E =-.378527E-04  mag=     4.0000
       N       E                     dE             d eps       ncg     rms          rms(c)
DAV:   1    -0.231647820911E+04   -0.20440E-04   -0.12508E-03  4312   0.319E-02    0.154E-02
RMM:   2    -0.231647822165E+04   -0.12540E-04   -0.12830E-04  3210   0.780E-03    0.146E-02
RMM:   3    -0.231647822090E+04    0.74800E-06   -0.15890E-05  2642   0.466E-03
 262 F= -.23369677E+04 E0= -.23369677E+04  d E =-.219603E-04  mag=     4.0000
       N       E                     dE             d eps       ncg     rms          rms(c)
DAV:   1    -0.231647822096E+04    0.69416E-06   -0.34415E-04  4656   0.167E-02    0.862E-03
RMM:   2    -0.231647822366E+04   -0.27049E-05   -0.32419E-05  2722   0.415E-03
 263 F= -.23369677E+04 E0= -.23369677E+04  d E =-.237976E-04  mag=     4.0000
       N       E                     dE             d eps       ncg     rms          rms(c)
DAV:   1    -0.231647822886E+04   -0.79061E-05   -0.79225E-04  4184   0.240E-02    0.113E-02
RMM:   2    -0.231647823742E+04   -0.85536E-05   -0.88005E-05  2997   0.613E-03
 264 F= -.23369677E+04 E0= -.23369677E+04  d E =-.144505E-04  mag=     4.0000
       N       E                     dE             d eps       ncg     rms          rms(c)
DAV:   1    -0.231647823677E+04   -0.79091E-05   -0.18096E-04  4840   0.120E-02    0.858E-03
RMM:   2    -0.231647823943E+04   -0.26604E-05   -0.26292E-05  2484   0.340E-03
 265 F= -.23369677E+04 E0= -.23369677E+04  d E =-.167822E-04  mag=     4.0000
       N       E                     dE             d eps       ncg     rms          rms(c)
DAV:   1    -0.231647824652E+04   -0.97463E-05   -0.61570E-04  4164   0.217E-02    0.101E-02
RMM:   2    -0.231647825315E+04   -0.66282E-05   -0.68197E-05  2774   0.554E-03
 266 F= -.23369678E+04 E0= -.23369678E+04  d E =-.159571E-04  mag=     4.0000
       N       E                     dE             d eps       ncg     rms          rms(c)
DAV:   1    -0.231647825210E+04   -0.55825E-05   -0.73918E-04  4240   0.239E-02    0.127E-02
RMM:   2    -0.231647826072E+04   -0.86134E-05   -0.87269E-05  3054   0.621E-03
 267 F= -.23369678E+04 E0= -.23369678E+04  d E =-.259855E-04  mag=     4.0000
       N       E                     dE             d eps       ncg     rms          rms(c)
DAV:   1    -0.231647826154E+04   -0.94389E-05   -0.81657E-04  4280   0.254E-02    0.131E-02
RMM:   2    -0.231647827093E+04   -0.93841E-05   -0.96468E-05  3097   0.655E-03
 268 F= -.23369678E+04 E0= -.23369678E+04  d E =-.153841E-04  mag=     4.0000
       N       E                     dE             d eps       ncg     rms          rms(c)
DAV:   1    -0.231647826955E+04   -0.80079E-05   -0.66644E-05  4480   0.808E-03    0.818E-03
RMM:   2    -0.231647827089E+04   -0.13417E-05   -0.12351E-05  2362   0.376E-03
 269 F= -.23369678E+04 E0= -.23369678E+04  d E =-.166420E-04  mag=     4.0000
       N       E                     dE             d eps       ncg     rms          rms(c)
DAV:   1    -0.231647827544E+04   -0.58896E-05   -0.61878E-04  4128   0.210E-02    0.973E-03
RMM:   2    -0.231647828221E+04   -0.67665E-05   -0.71248E-05  2763   0.516E-03
 270 F= -.23369678E+04 E0= -.23369678E+04  d E =-.122222E-04  mag=     4.0000
       N       E                     dE             d eps       ncg     rms          rms(c)
DAV:   1    -0.231647828286E+04   -0.74235E-05   -0.27581E-04  4112   0.143E-02    0.912E-03
RMM:   2    -0.231647828711E+04   -0.42434E-05   -0.39571E-05  2616   0.403E-03
 271 F= -.23369678E+04 E0= -.23369678E+04  d E =-.177232E-04  mag=     4.0000
       N       E                     dE             d eps       ncg     rms          rms(c)
DAV:   1    -0.231647828815E+04   -0.52916E-05   -0.69522E-04  4200   0.218E-02    0.104E-02
RMM:   2    -0.231647829675E+04   -0.85997E-05   -0.89018E-05  2995   0.576E-03
 272 F= -.23369678E+04 E0= -.23369678E+04  d E =-.130110E-04  mag=     4.0000
       N       E                     dE             d eps       ncg     rms          rms(c)
DAV:   1    -0.231647829397E+04   -0.58205E-05   -0.24925E-04  4408   0.134E-02    0.884E-03
RMM:   2    -0.231647829784E+04   -0.38622E-05   -0.38194E-05  2593   0.378E-03
 273 F= -.23369678E+04 E0= -.23369678E+04  d E =-.160740E-04  mag=     4.0000
       N       E                     dE             d eps       ncg     rms          rms(c)
DAV:   1    -0.231647829851E+04   -0.45370E-05   -0.26660E-04  4044   0.126E-02    0.764E-03
RMM:   2    -0.231647830260E+04   -0.40913E-05   -0.40810E-05  2526   0.358E-03
 274 F= -.23369678E+04 E0= -.23369678E+04  d E =-.687604E-05  mag=     4.0000
       N       E                     dE             d eps       ncg     rms          rms(c)
DAV:   1    -0.231647827703E+04    0.21477E-04   -0.23582E-03  4280   0.360E-02    0.170E-02
RMM:   2    -0.231647830728E+04   -0.30241E-04   -0.31096E-04  3421   0.896E-03    0.133E-02
RMM:   3    -0.231647830886E+04   -0.15892E-05   -0.35768E-05  2594   0.490E-03
 275 F= -.23369678E+04 E0= -.23369678E+04  d E =-.194776E-04  mag=     4.0000
       N       E                     dE             d eps       ncg     rms          rms(c)
DAV:   1    -0.231647831716E+04   -0.98835E-05   -0.59778E-04  4056   0.183E-02    0.949E-03
RMM:   2    -0.231647832481E+04   -0.76520E-05   -0.79415E-05  2891   0.470E-03
 276 F= -.23369679E+04 E0= -.23369679E+04  d E =-.168289E-04  mag=     4.0000
       N       E                     dE             d eps       ncg     rms          rms(c)
DAV:   1    -0.231647831655E+04    0.60588E-06   -0.18228E-03  4256   0.318E-02    0.150E-02
RMM:   2    -0.231647834025E+04   -0.23702E-04   -0.24737E-04  3311   0.800E-03    0.950E-03
RMM:   3    -0.231647834172E+04   -0.14704E-05   -0.25636E-05  2442   0.460E-03
 277 F= -.23369679E+04 E0= -.23369679E+04  d E =-.352641E-04  mag=     4.0000
       N       E                     dE             d eps       ncg     rms          rms(c)
DAV:   1    -0.231647825353E+04    0.86724E-04   -0.72570E-03  4376   0.629E-02    0.280E-02
RMM:   2    -0.231647834225E+04   -0.88721E-04   -0.92879E-04  4704   0.143E-02    0.191E-02
RMM:   3    -0.231647834765E+04   -0.53962E-05   -0.95471E-05  2849   0.656E-03
 278 F= -.23369679E+04 E0= -.23369679E+04  d E =-.442564E-04  mag=     4.0000
       N       E                     dE             d eps       ncg     rms          rms(c)
DAV:   1    -0.231647834042E+04    0.18314E-05   -0.75362E-04  4104   0.204E-02    0.110E-02
RMM:   2    -0.231647834865E+04   -0.82346E-05   -0.93791E-05  2976   0.473E-03
 279 F= -.23369679E+04 E0= -.23369679E+04  d E =-.443084E-04  mag=     4.0000
       N       E                     dE             d eps       ncg     rms          rms(c)
DAV:   1    -0.231647835165E+04   -0.11229E-04   -0.88841E-04  4056   0.207E-02    0.978E-03
RMM:   2    -0.231647836213E+04   -0.10485E-04   -0.11065E-04  2954   0.490E-03    0.668E-03
RMM:   3    -0.231647836301E+04   -0.87571E-06   -0.13487E-05  2319   0.312E-03
 280 F= -.23369679E+04 E0= -.23369679E+04  d E =-.148890E-04  mag=     4.0000
       N       E                     dE             d eps       ncg     rms          rms(c)
DAV:   1    -0.231647832364E+04    0.38494E-04   -0.48834E-03  4272   0.480E-02    0.223E-02
RMM:   2    -0.231647838645E+04   -0.62811E-04   -0.64906E-04  3924   0.107E-02    0.166E-02
RMM:   3    -0.231647839005E+04   -0.35971E-05   -0.66646E-05  2728   0.514E-03
 281 F= -.23369679E+04 E0= -.23369679E+04  d E =-.431978E-04  mag=     4.0000
       N       E                     dE             d eps       ncg     rms          rms(c)
DAV:   1    -0.231647814989E+04    0.23656E-03   -0.19440E-02  4408   0.957E-02    0.445E-02
RMM:   2    -0.231647840080E+04   -0.25091E-03   -0.25974E-03  5463   0.221E-02    0.303E-02
RMM:   3    -0.231647841593E+04   -0.15130E-04   -0.25947E-04  2928   0.865E-03    0.212E-02
RMM:   4    -0.231647841496E+04    0.96363E-06   -0.31395E-05  2865   0.254E-03
 282 F= -.23369680E+04 E0= -.23369680E+04  d E =-.706780E-04  mag=     4.0000
       N       E                     dE             d eps       ncg     rms          rms(c)
DAV:   1    -0.231647841321E+04    0.27164E-05   -0.29806E-03  4248   0.389E-02    0.192E-02
RMM:   2    -0.231647845209E+04   -0.38877E-04   -0.38877E-04  3568   0.855E-03    0.201E-02
RMM:   3    -0.231647845139E+04    0.69707E-06   -0.40357E-05  2762   0.455E-03
 283 F= -.23369680E+04 E0= -.23369680E+04  d E =-.375415E-04  mag=     4.0000
       N       E                     dE             d eps       ncg     rms          rms(c)
DAV:   1    -0.231647816611E+04    0.28598E-03   -0.27757E-02  4408   0.117E-01    0.532E-02
RMM:   2    -0.231647850715E+04   -0.34105E-03   -0.35379E-03  5870   0.259E-02    0.365E-02
RMM:   3    -0.231647852689E+04   -0.19738E-04   -0.34439E-04  2964   0.101E-02    0.259E-02
RMM:   4    -0.231647852498E+04    0.19081E-05   -0.42009E-05  2874   0.299E-03
 284 F= -.23369681E+04 E0= -.23369681E+04  d E =-.114505E-03  mag=     4.0000
       N       E                     dE             d eps       ncg     rms          rms(c)
DAV:   1    -0.231647710781E+04    0.14191E-02   -0.11044E-01  4408   0.233E-01    0.105E-01
RMM:   2    -0.231647845449E+04   -0.13467E-02   -0.14033E-02  6083   0.498E-02    0.767E-02
RMM:   3    -0.231647852907E+04   -0.74577E-04   -0.13936E-03  3347   0.193E-02    0.549E-02
RMM:   4    -0.231647851352E+04    0.15548E-04   -0.16146E-04  2914   0.566E-03    0.317E-02
RMM:   5    -0.231647850173E+04    0.11792E-04   -0.50550E-05  2986   0.437E-03    0.127E-02
RMM:   6    -0.231647850283E+04   -0.10955E-05   -0.93060E-06  2853   0.344E-03
 285 F= -.23369681E+04 E0= -.23369681E+04  d E =-.991621E-04  mag=     4.0000
       N       E                     dE             d eps       ncg     rms          rms(c)
DAV:   1    -0.231647820682E+04    0.29491E-03   -0.26590E-02  4408   0.114E-01    0.494E-02
RMM:   2    -0.231647852455E+04   -0.31773E-03   -0.33150E-03  5764   0.254E-02    0.320E-02
RMM:   3    -0.231647854264E+04   -0.18088E-04   -0.31477E-04  2921   0.969E-03    0.225E-02
RMM:   4    -0.231647854118E+04    0.14640E-05   -0.36412E-05  2868   0.284E-03
 286 F= -.23369681E+04 E0= -.23369681E+04  d E =-.134165E-03  mag=     4.0000
       N       E                     dE             d eps       ncg     rms          rms(c)
DAV:   1    -0.231647846645E+04    0.76196E-04   -0.57121E-03  4312   0.530E-02    0.256E-02
RMM:   2    -0.231647853783E+04   -0.71379E-04   -0.73068E-04  4065   0.114E-02    0.240E-02
RMM:   3    -0.231647853940E+04   -0.15709E-05   -0.77988E-05  2840   0.566E-03
 287 F= -.23369681E+04 E0= -.23369681E+04  d E =-.130819E-03  mag=     4.0000
       N       E                     dE             d eps       ncg     rms          rms(c)
DAV:   1    -0.231647850053E+04    0.37293E-04   -0.65777E-03  4272   0.552E-02    0.247E-02
RMM:   2    -0.231647857909E+04   -0.78556E-04   -0.84582E-04  4171   0.118E-02    0.158E-02
RMM:   3    -0.231647858451E+04   -0.54234E-05   -0.81693E-05  2767   0.566E-03
 288 F= -.23369681E+04 E0= -.23369681E+04  d E =-.491681E-04  mag=     4.0000
       N       E                     dE             d eps       ncg     rms          rms(c)
DAV:   1    -0.231647807159E+04    0.50750E-03   -0.43365E-02  4408   0.142E-01    0.648E-02
RMM:   2    -0.231647862054E+04   -0.54894E-03   -0.56936E-03  5969   0.320E-02    0.437E-02
RMM:   3    -0.231647865413E+04   -0.33598E-04   -0.55854E-04  3017   0.122E-02    0.305E-02
RMM:   4    -0.231647865238E+04    0.17501E-05   -0.67207E-05  2887   0.345E-03
 289 F= -.23369682E+04 E0= -.23369682E+04  d E =-.127559E-03  mag=     4.0000
       N       E                     dE             d eps       ncg     rms          rms(c)
DAV:   1    -0.231647633285E+04    0.23213E-02   -0.17226E-01  4408   0.283E-01    0.130E-01
RMM:   2    -0.231647850926E+04   -0.21764E-02   -0.22632E-02  6135   0.611E-02    0.963E-02
RMM:   3    -0.231647862305E+04   -0.11379E-03   -0.21366E-03  3652   0.225E-02    0.681E-02
RMM:   4    -0.231647860098E+04    0.22065E-04   -0.25591E-04  2938   0.652E-03    0.400E-02
RMM:   5    -0.231647858234E+04    0.18646E-04   -0.78936E-05  3043   0.515E-03    0.164E-02
RMM:   6    -0.231647858380E+04   -0.14604E-05   -0.14317E-05  2883   0.399E-03
 290 F= -.23369682E+04 E0= -.23369682E+04  d E =-.802100E-04  mag=     4.0000
       N       E                     dE             d eps       ncg     rms          rms(c)
DAV:   1    -0.231647779280E+04    0.78954E-03   -0.66228E-02  4408   0.175E-01    0.777E-02
RMM:   2    -0.231647861281E+04   -0.82001E-03   -0.85438E-03  6121   0.391E-02    0.508E-02
RMM:   3    -0.231647866221E+04   -0.49400E-04   -0.81441E-04  3087   0.140E-02    0.354E-02
RMM:   4    -0.231647865925E+04    0.29579E-05   -0.93226E-05  2892   0.404E-03
 291 F= -.23369682E+04 E0= -.23369682E+04  d E =-.142527E-03  mag=     4.0000
       N       E                     dE             d eps       ncg     rms          rms(c)
DAV:   1    -0.231647859645E+04    0.65762E-04   -0.70025E-03  4184   0.536E-02    0.262E-02
RMM:   2    -0.231647868637E+04   -0.89928E-04   -0.94347E-04  4121   0.126E-02    0.154E-02
RMM:   3    -0.231647869534E+04   -0.89704E-05   -0.10764E-04  2804   0.593E-03    0.144E-02
RMM:   4    -0.231647869375E+04    0.15910E-05   -0.10366E-05  2382   0.180E-03
 292 F= -.23369683E+04 E0= -.23369683E+04  d E =-.355908E-04  mag=     4.0000
       N       E                     dE             d eps       ncg     rms          rms(c)
DAV:   1    -0.231647796848E+04    0.72686E-03   -0.59842E-02  4408   0.157E-01    0.740E-02
RMM:   2    -0.231647874177E+04   -0.77328E-03   -0.80119E-03  5976   0.346E-02    0.512E-02
RMM:   3    -0.231647878810E+04   -0.46332E-04   -0.74947E-04  3050   0.127E-02    0.358E-02
RMM:   4    -0.231647878476E+04    0.33349E-05   -0.89222E-05  2884   0.379E-03
 293 F= -.23369684E+04 E0= -.23369684E+04  d E =-.129930E-03  mag=     4.0000
       N       E                     dE             d eps       ncg     rms          rms(c)
DAV:   1    -0.231647560263E+04    0.31855E-02   -0.23805E-01  4408   0.314E-01    0.149E-01
RMM:   2    -0.231647869200E+04   -0.30894E-02   -0.32046E-02  6242   0.680E-02    0.110E-01
RMM:   3    -0.231647886835E+04   -0.17635E-03   -0.30483E-03  3745   0.254E-02    0.770E-02
RMM:   4    -0.231647884747E+04    0.20878E-04   -0.36728E-04  2962   0.696E-03    0.473E-02
RMM:   5    -0.231647882234E+04    0.25134E-04   -0.10234E-04  3086   0.525E-03    0.197E-02
RMM:   6    -0.231647882455E+04   -0.22094E-05   -0.19728E-05  2895   0.391E-03
 294 F= -.23369684E+04 E0= -.23369684E+04  d E =-.176712E-03  mag=     4.0000
       N       E                     dE             d eps       ncg     rms          rms(c)
DAV:   1    -0.231647856880E+04    0.25354E-03   -0.27624E-02  4376   0.106E-01    0.512E-02
RMM:   2    -0.231647891956E+04   -0.35076E-03   -0.36704E-03  5338   0.228E-02    0.361E-02
RMM:   3    -0.231647894121E+04   -0.21654E-04   -0.34750E-04  2937   0.919E-03    0.260E-02
RMM:   4    -0.231647893917E+04    0.20402E-05   -0.42178E-05  2856   0.284E-03
 295 F= -.23369685E+04 E0= -.23369685E+04  d E =-.112591E-03  mag=     4.0000
       N       E                     dE             d eps       ncg     rms          rms(c)
DAV:   1    -0.231647589900E+04    0.30422E-02   -0.24757E-01  4408   0.318E-01    0.150E-01
RMM:   2    -0.231647901944E+04   -0.31204E-02   -0.32405E-02  6228   0.688E-02    0.105E-01
RMM:   3    -0.231647920795E+04   -0.18851E-03   -0.30650E-03  3720   0.248E-02    0.747E-02
RMM:   4    -0.231647919047E+04    0.17486E-04   -0.36348E-04  2958   0.691E-03    0.476E-02
RMM:   5    -0.231647916534E+04    0.25120E-04   -0.10427E-04  3078   0.526E-03    0.219E-02
RMM:   6    -0.231647916699E+04   -0.16451E-05   -0.23272E-05  2908   0.395E-03
 296 F= -.23369687E+04 E0= -.23369687E+04  d E =-.334648E-03  mag=     4.0000
       N       E                     dE             d eps       ncg     rms          rms(c)
DAV:   1    -0.231646602627E+04    0.13139E-01   -0.99442E-01  4408   0.637E-01    0.300E-01
RMM:   2    -0.231647859720E+04   -0.12571E-01   -0.13085E-01  6251   0.138E-01    0.207E-01
RMM:   3    -0.231647936918E+04   -0.77198E-03   -0.12346E-02  5310   0.496E-02    0.145E-01
RMM:   4    -0.231647931630E+04    0.52881E-04   -0.14540E-03  3281   0.119E-02    0.926E-02
RMM:   5    -0.231647921990E+04    0.96402E-04   -0.37854E-04  3695   0.934E-03    0.463E-02
RMM:   6    -0.231647922107E+04   -0.11710E-05   -0.10210E-04  3093   0.648E-03    0.211E-02
RMM:   7    -0.231647921813E+04    0.29362E-05   -0.16600E-05  2855   0.409E-03
 297 F= -.23369688E+04 E0= -.23369688E+04  d E =-.376077E-03  mag=     4.0000
       N       E                     dE             d eps       ncg     rms          rms(c)
DAV:   1    -0.231647770653E+04    0.15145E-02   -0.11861E-01  4408   0.220E-01    0.102E-01
RMM:   2    -0.231647918358E+04   -0.14771E-02   -0.15349E-02  6122   0.475E-02    0.688E-02
RMM:   3    -0.231647927559E+04   -0.92010E-04   -0.14483E-03  3197   0.171E-02    0.493E-02
RMM:   4    -0.231647926870E+04    0.68934E-05   -0.16903E-04  2906   0.497E-03    0.321E-02
RMM:   5    -0.231647925655E+04    0.12144E-04   -0.48731E-05  2928   0.366E-03    0.156E-02
RMM:   6    -0.231647925648E+04    0.71566E-07   -0.12216E-05  2829   0.285E-03
 298 F= -.23369688E+04 E0= -.23369688E+04  d E =-.417494E-03  mag=     4.0000
       N       E                     dE             d eps       ncg     rms          rms(c)
DAV:   1    -0.231647820320E+04    0.10534E-02   -0.90736E-02  4408   0.189E-01    0.893E-02
RMM:   2    -0.231647937280E+04   -0.11696E-02   -0.12126E-02  6095   0.420E-02    0.600E-02
RMM:   3    -0.231647944555E+04   -0.72748E-04   -0.11381E-03  3106   0.148E-02    0.411E-02
RMM:   4    -0.231647944289E+04    0.26617E-05   -0.13281E-04  2896   0.430E-03    0.277E-02
RMM:   5    -0.231647943369E+04    0.92024E-05   -0.36507E-05  2877   0.312E-03
 299 F= -.23369690E+04 E0= -.23369690E+04  d E =-.182121E-03  mag=     4.0000
       N       E                     dE             d eps       ncg     rms          rms(c)
DAV:   1    -0.231646858222E+04    0.10861E-01   -0.81243E-01  4408   0.565E-01    0.271E-01
RMM:   2    -0.231647912733E+04   -0.10545E-01   -0.10991E-01  6315   0.125E-01    0.179E-01
RMM:   3    -0.231647981555E+04   -0.68821E-03   -0.10342E-02  5150   0.433E-02    0.124E-01
RMM:   4    -0.231647980079E+04    0.14753E-04   -0.12154E-03  3126   0.106E-02    0.844E-02
RMM:   5    -0.231647972660E+04    0.74191E-04   -0.31794E-04  3445   0.859E-03    0.461E-02
RMM:   6    -0.231647972268E+04    0.39268E-05   -0.97141E-05  3075   0.607E-03
 300 F= -.23369693E+04 E0= -.23369693E+04  d E =-.487014E-03  mag=     4.0000
       N       E                     dE             d eps       ncg     rms          rms(c)
DAV:   1    -0.231647764465E+04    0.20820E-02   -0.15088E-01  4408   0.243E-01    0.120E-01
RMM:   2    -0.231647961568E+04   -0.19710E-02   -0.20616E-02  6208   0.530E-02    0.833E-02
RMM:   3    -0.231647974597E+04   -0.13029E-03   -0.20156E-03  3304   0.195E-02    0.595E-02
RMM:   4    -0.231647973689E+04    0.90787E-05   -0.23578E-04  2918   0.560E-03    0.369E-02
RMM:   5    -0.231647972266E+04    0.14233E-04   -0.55384E-05  2935   0.378E-03    0.178E-02
RMM:   6    -0.231647972387E+04   -0.12077E-05   -0.15397E-05  2852   0.299E-03
 301 F= -.23369693E+04 E0= -.23369693E+04  d E =-.495631E-03  mag=     4.0000
