       N       E                     dE             d eps       ncg     rms          rms(c)
DAV:   1     0.127743775901E+05    0.12774E+05   -0.84869E+05  4640   0.143E+03
DAV:   2    -0.121006156073E+04   -0.13984E+05   -0.13397E+05  5040   0.326E+02
DAV:   3    -0.249752476544E+04   -0.12875E+04   -0.12760E+04  5520   0.107E+02
DAV:   4    -0.252869236017E+04   -0.31168E+02   -0.30986E+02  5680   0.213E+01
DAV:   5    -0.252968905136E+04   -0.99669E+00   -0.99480E+00  5760   0.313E+00    0.170E+02
RMM:   6    -0.149351147408E+04    0.10362E+04   -0.19337E+03  4507   0.379E+01    0.721E+01
RMM:   7    -0.166077041013E+04   -0.16726E+03   -0.28561E+02  5148   0.143E+01    0.468E+01
RMM:   8    -0.172098177838E+04   -0.60211E+02   -0.32209E+01  5464   0.658E+00    0.352E+01
RMM:   9    -0.187249291590E+04   -0.15151E+03   -0.72880E+01  5233   0.834E+00    0.381E+01
RMM:  10    -0.193661637141E+04   -0.64123E+02   -0.35968E+01  5275   0.564E+00    0.218E+01
RMM:  11    -0.202829059691E+04   -0.91674E+02   -0.36460E+01  4961   0.493E+00    0.214E+01
RMM:  12    -0.208757596400E+04   -0.59285E+02   -0.22754E+01  5200   0.396E+00    0.135E+01
RMM:  13    -0.219261327604E+04   -0.10504E+03   -0.62910E+01  4602   0.606E+00    0.116E+01
RMM:  14    -0.227520148114E+04   -0.82588E+02   -0.69244E+01  4810   0.594E+00    0.993E+00
RMM:  15    -0.230784891369E+04   -0.32647E+02   -0.31900E+01  5047   0.425E+00    0.550E+00
RMM:  16    -0.231874805214E+04   -0.10899E+02   -0.13001E+01  4859   0.240E+00    0.369E+00
RMM:  17    -0.232241786919E+04   -0.36698E+01   -0.30738E+00  5308   0.121E+00    0.343E+00
RMM:  18    -0.232317212045E+04   -0.75425E+00   -0.48472E-01  5492   0.484E-01    0.322E+00
RMM:  19    -0.232366410371E+04   -0.49198E+00   -0.29830E-01  4619   0.307E-01    0.204E+00
RMM:  20    -0.232460979503E+04   -0.94569E+00   -0.87519E-01  4541   0.520E-01    0.961E-01
RMM:  21    -0.232499692315E+04   -0.38713E+00   -0.39252E-01  4547   0.380E-01    0.605E-01
RMM:  22    -0.232516600291E+04   -0.16908E+00   -0.11214E-01  4655   0.214E-01    0.413E-01
RMM:  23    -0.232529328204E+04   -0.12728E+00   -0.59993E-02  4559   0.139E-01    0.317E-01
RMM:  24    -0.232534810914E+04   -0.54827E-01   -0.17971E-02  4668   0.101E-01    0.189E-01
RMM:  25    -0.232537571563E+04   -0.27606E-01   -0.72701E-03  4699   0.564E-02    0.132E-01
RMM:  26    -0.232539827148E+04   -0.22556E-01   -0.38999E-03  4517   0.472E-02    0.816E-02
RMM:  27    -0.232541130650E+04   -0.13035E-01   -0.28306E-03  4579   0.356E-02    0.463E-02
RMM:  28    -0.232541703102E+04   -0.57245E-02   -0.16046E-03  4466   0.282E-02    0.293E-02
RMM:  29    -0.232541881635E+04   -0.17853E-02   -0.62888E-04  4426   0.165E-02    0.167E-02
RMM:  30    -0.232541912817E+04   -0.31183E-03   -0.10639E-04  3954   0.902E-03    0.923E-03
RMM:  31    -0.232541925147E+04   -0.12329E-03   -0.31035E-05  3299   0.471E-03    0.506E-03
RMM:  32    -0.232541932034E+04   -0.68869E-04   -0.13926E-05  2978   0.381E-03    0.293E-03
RMM:  33    -0.232541934718E+04   -0.26847E-04   -0.66381E-06  2883   0.289E-03    0.153E-03
RMM:  34    -0.232541936074E+04   -0.13555E-04   -0.40406E-06  2737   0.225E-03    0.962E-04
RMM:  35    -0.232541936604E+04   -0.53029E-05   -0.22722E-06  2517   0.181E-03
   1 F= -.23468694E+04 E0= -.23468685E+04  d E =-.181006E-02  mag=     2.9809
       N       E                     dE             d eps       ncg     rms          rms(c)
DAV:   1    -0.232539712381E+04    0.22237E-01   -0.20524E+00  4480   0.750E-01    0.328E-01
RMM:   2    -0.232539730959E+04   -0.18577E-03   -0.11021E-02  4436   0.495E-02    0.289E-01
RMM:   3    -0.232539783000E+04   -0.52042E-03   -0.32652E-03  4368   0.306E-02    0.391E-01
RMM:   4    -0.232539657753E+04    0.12525E-02   -0.14259E-03  4730   0.175E-02    0.134E-01
RMM:   5    -0.232539660241E+04   -0.24877E-04   -0.73361E-04  3987   0.129E-02    0.137E-01
RMM:   6    -0.232539637622E+04    0.22619E-03   -0.16682E-04  3160   0.736E-03    0.317E-02
RMM:   7    -0.232539637108E+04    0.51404E-05   -0.47489E-05  2838   0.398E-03
   2 F= -.23468468E+04 E0= -.23468458E+04  d E =-.199069E-02  mag=     2.9791
       N       E                     dE             d eps       ncg     rms          rms(c)
DAV:   1    -0.232541058220E+04   -0.14206E-01   -0.81022E+00  4480   0.150E+00    0.634E-01
RMM:   2    -0.232541112827E+04   -0.54607E-03   -0.35502E-02  4549   0.948E-02    0.581E-01
RMM:   3    -0.232541288719E+04   -0.17589E-02   -0.11746E-02  4895   0.575E-02    0.749E-01
RMM:   4    -0.232540811095E+04    0.47762E-02   -0.52047E-03  5579   0.330E-02    0.254E-01
RMM:   5    -0.232540811769E+04   -0.67365E-05   -0.27278E-03  5067   0.240E-02    0.251E-01
RMM:   6    -0.232540739037E+04    0.72732E-03   -0.59769E-04  3928   0.121E-02    0.666E-02
RMM:   7    -0.232540736157E+04    0.28797E-04   -0.16726E-04  3057   0.661E-03    0.522E-02
RMM:   8    -0.232540732007E+04    0.41503E-04   -0.54707E-05  2984   0.432E-03    0.148E-02
RMM:   9    -0.232540731821E+04    0.18558E-05   -0.14806E-05  2889   0.300E-03
   3 F= -.23468570E+04 E0= -.23468562E+04  d E =-.160053E-02  mag=     2.9822
       N       E                     dE             d eps       ncg     rms          rms(c)
DAV:   1    -0.232541729196E+04   -0.99719E-02   -0.38385E+00  4640   0.101E+00    0.425E-01
RMM:   2    -0.232541725074E+04    0.41218E-04   -0.21348E-02  4514   0.729E-02    0.364E-01
RMM:   3    -0.232541839313E+04   -0.11424E-02   -0.52510E-03  4333   0.421E-02    0.524E-01
RMM:   4    -0.232541567449E+04    0.27186E-02   -0.25032E-03  5177   0.239E-02    0.138E-01
RMM:   5    -0.232541571695E+04   -0.42462E-04   -0.96841E-04  4689   0.163E-02    0.137E-01
RMM:   6    -0.232541541793E+04    0.29903E-03   -0.31671E-04  3773   0.939E-03    0.281E-02
RMM:   7    -0.232541541915E+04   -0.12188E-05   -0.67458E-05  3019   0.468E-03
   4 F= -.23468653E+04 E0= -.23468646E+04  d E =-.143213E-02  mag=     2.9845
       N       E                     dE             d eps       ncg     rms          rms(c)
DAV:   1    -0.232540244445E+04    0.12973E-01   -0.75793E+00  4480   0.134E+00    0.526E-01
RMM:   2    -0.232540224093E+04    0.20352E-03   -0.38395E-02  4433   0.930E-02    0.366E-01
RMM:   3    -0.232540376527E+04   -0.15243E-02   -0.73551E-03  5455   0.489E-02    0.571E-01
RMM:   4    -0.232540014737E+04    0.36179E-02   -0.47090E-03  5544   0.310E-02    0.225E-01
RMM:   5    -0.232540032368E+04   -0.17631E-03   -0.16608E-03  4709   0.186E-02    0.275E-01
RMM:   6    -0.232539954697E+04    0.77671E-03   -0.48542E-04  3883   0.108E-02    0.363E-02
RMM:   7    -0.232539953157E+04    0.15398E-04   -0.90304E-05  3113   0.534E-03    0.220E-02
RMM:   8    -0.232539953605E+04   -0.44761E-05   -0.34579E-05  2964   0.443E-03
   5 F= -.23468498E+04 E0= -.23468487E+04  d E =-.231269E-02  mag=     2.9763
       N       E                     dE             d eps       ncg     rms          rms(c)
DAV:   1    -0.232542730343E+04   -0.27772E-01   -0.38897E+00  4640   0.967E-01    0.411E-01
RMM:   2    -0.232542693370E+04    0.36973E-03   -0.32014E-02  4594   0.822E-02    0.283E-01
RMM:   3    -0.232542640312E+04    0.53058E-03   -0.44734E-03  4996   0.458E-02    0.301E-01
RMM:   4    -0.232542564209E+04    0.76103E-03   -0.27551E-03  5511   0.246E-02    0.233E-01
RMM:   5    -0.232542549422E+04    0.14786E-03   -0.12227E-03  4555   0.157E-02    0.209E-01
RMM:   6    -0.232542498784E+04    0.50639E-03   -0.46067E-04  3852   0.109E-02    0.512E-02
RMM:   7    -0.232542498477E+04    0.30635E-05   -0.10847E-04  2999   0.606E-03    0.545E-02
RMM:   8    -0.232542495012E+04    0.34651E-04   -0.49032E-05  3011   0.427E-03    0.165E-02
RMM:   9    -0.232542495144E+04   -0.13191E-05   -0.17778E-05  2963   0.350E-03
   6 F= -.23468752E+04 E0= -.23468744E+04  d E =-.165381E-02  mag=     2.9816
       N       E                     dE             d eps       ncg     rms          rms(c)
DAV:   1    -0.232540129534E+04    0.23655E-01   -0.78293E+00  4480   0.147E+00    0.559E-01
RMM:   2    -0.232540107012E+04    0.22522E-03   -0.47644E-02  4813   0.102E-01    0.461E-01
RMM:   3    -0.232540142465E+04   -0.35454E-03   -0.10053E-02  5296   0.600E-02    0.582E-01
RMM:   4    -0.232539831619E+04    0.31085E-02   -0.49073E-03  5412   0.308E-02    0.341E-01
RMM:   5    -0.232539756103E+04    0.75516E-03   -0.25254E-03  5014   0.223E-02    0.218E-01
RMM:   6    -0.232539704633E+04    0.51470E-03   -0.59908E-04  4450   0.125E-02    0.641E-02
RMM:   7    -0.232539705633E+04   -0.10005E-04   -0.19547E-04  3183   0.777E-03    0.702E-02
RMM:   8    -0.232539698932E+04    0.67010E-04   -0.75169E-05  2993   0.568E-03    0.199E-02
RMM:   9    -0.232539698818E+04    0.11462E-05   -0.26051E-05  3002   0.369E-03
   7 F= -.23468469E+04 E0= -.23468459E+04  d E =-.202308E-02  mag=     2.9783
       N       E                     dE             d eps       ncg     rms          rms(c)
DAV:   1    -0.232541894865E+04   -0.21959E-01   -0.67911E+00  4480   0.129E+00    0.528E-01
RMM:   2    -0.232541949294E+04   -0.54429E-03   -0.46567E-02  4483   0.105E-01    0.291E-01
RMM:   3    -0.232541955958E+04   -0.66634E-04   -0.51313E-03  5115   0.470E-02    0.337E-01
RMM:   4    -0.232541861220E+04    0.94737E-03   -0.23479E-03  4937   0.219E-02    0.194E-01
RMM:   5    -0.232541856311E+04    0.49091E-04   -0.86877E-04  3828   0.125E-02    0.162E-01
RMM:   6    -0.232541826182E+04    0.30129E-03   -0.29881E-04  3404   0.905E-03    0.344E-02
RMM:   7    -0.232541826470E+04   -0.28765E-05   -0.46538E-05  2933   0.404E-03
   8 F= -.23468679E+04 E0= -.23468670E+04  d E =-.178469E-02  mag=     2.9802
       N       E                     dE             d eps       ncg     rms          rms(c)
DAV:   1    -0.232538547076E+04    0.32791E-01   -0.20498E+01  4480   0.208E+00    0.102E+00
RMM:   2    -0.232537619287E+04    0.92779E-02   -0.11652E-01  4546   0.147E-01    0.526E-01
RMM:   3    -0.232538163766E+04   -0.54448E-02   -0.21056E-02  5877   0.791E-02    0.899E-01
RMM:   4    -0.232537317556E+04    0.84621E-02   -0.98697E-03  5941   0.442E-02    0.363E-01
RMM:   5    -0.232537329542E+04   -0.11987E-03   -0.40077E-03  5180   0.243E-02    0.370E-01
RMM:   6    -0.232537210463E+04    0.11908E-02   -0.14630E-03  4925   0.176E-02    0.921E-02
RMM:   7    -0.232537206131E+04    0.43325E-04   -0.30355E-04  3292   0.862E-03    0.667E-02
RMM:   8    -0.232537200612E+04    0.55191E-04   -0.72792E-05  3061   0.534E-03    0.204E-02
RMM:   9    -0.232537200705E+04   -0.93429E-06   -0.54489E-05  3095   0.371E-03
   9 F= -.23468226E+04 E0= -.23468217E+04  d E =-.177656E-02  mag=     2.9807
       N       E                     dE             d eps       ncg     rms          rms(c)
DAV:   1    -0.232540711018E+04   -0.35104E-01   -0.10289E+01  4480   0.151E+00    0.616E-01
RMM:   2    -0.232540469258E+04    0.24176E-02   -0.44108E-02  4412   0.104E-01    0.368E-01
RMM:   3    -0.232540797767E+04   -0.32851E-02   -0.11730E-02  6087   0.486E-02    0.653E-01
RMM:   4    -0.232540295608E+04    0.50216E-02   -0.52893E-03  5607   0.319E-02    0.208E-01
RMM:   5    -0.232540283127E+04    0.12481E-03   -0.14516E-03  4254   0.146E-02    0.189E-01
RMM:   6    -0.232540249095E+04    0.34031E-03   -0.31426E-04  3428   0.865E-03    0.480E-02
RMM:   7    -0.232540248441E+04    0.65393E-05   -0.10791E-04  3034   0.580E-03    0.423E-02
RMM:   8    -0.232540246063E+04    0.23783E-04   -0.43167E-05  2968   0.444E-03    0.120E-02
RMM:   9    -0.232540245900E+04    0.16320E-05   -0.11660E-05  2939   0.305E-03
  10 F= -.23468515E+04 E0= -.23468505E+04  d E =-.181865E-02  mag=     2.9808
       N       E                     dE             d eps       ncg     rms          rms(c)
DAV:   1    -0.232541718103E+04   -0.14720E-01   -0.20399E+01  4480   0.215E+00    0.858E-01
RMM:   2    -0.232541912122E+04   -0.19402E-02   -0.11977E-01  4504   0.169E-01    0.424E-01
RMM:   3    -0.232541840914E+04    0.71209E-03   -0.12934E-02  5447   0.826E-02    0.507E-01
RMM:   4    -0.232541566089E+04    0.27482E-02   -0.53480E-03  5739   0.349E-02    0.220E-01
RMM:   5    -0.232541608304E+04   -0.42215E-03   -0.17249E-03  5077   0.205E-02    0.304E-01
RMM:   6    -0.232541506818E+04    0.10149E-02   -0.63928E-04  4307   0.126E-02    0.532E-02
RMM:   7    -0.232541505854E+04    0.96412E-05   -0.14887E-04  3215   0.660E-03    0.508E-02
RMM:   8    -0.232541502940E+04    0.29139E-04   -0.77360E-05  3228   0.568E-03    0.198E-02
RMM:   9    -0.232541502624E+04    0.31548E-05   -0.17967E-05  2964   0.386E-03
  11 F= -.23468661E+04 E0= -.23468652E+04  d E =-.179973E-02  mag=     2.9805
       N       E                     dE             d eps       ncg     rms          rms(c)
DAV:   1    -0.232541420263E+04    0.82677E-03   -0.10171E+01  4480   0.157E+00    0.617E-01
RMM:   2    -0.232541465187E+04   -0.44924E-03   -0.57834E-02  4443   0.120E-01    0.344E-01
RMM:   3    -0.232541786993E+04   -0.32181E-02   -0.10665E-02  5866   0.595E-02    0.672E-01
RMM:   4    -0.232541253609E+04    0.53338E-02   -0.44764E-03  5369   0.301E-02    0.159E-01
RMM:   5    -0.232541256541E+04   -0.29317E-04   -0.12364E-03  4251   0.153E-02    0.191E-01
RMM:   6    -0.232541218691E+04    0.37850E-03   -0.41635E-04  3887   0.100E-02    0.381E-02
RMM:   7    -0.232541218123E+04    0.56824E-05   -0.84731E-05  3073   0.587E-03
  12 F= -.23468621E+04 E0= -.23468612E+04  d E =-.193439E-02  mag=     2.9800
       N       E                     dE             d eps       ncg     rms          rms(c)
DAV:   1    -0.232541486624E+04   -0.26793E-02   -0.20684E+01  4480   0.219E+00    0.710E-01
RMM:   2    -0.232541792565E+04   -0.30594E-02   -0.95830E-02  4459   0.163E-01    0.428E-01
RMM:   3    -0.232542549891E+04   -0.75733E-02   -0.17193E-02  5716   0.773E-02    0.961E-01
RMM:   4    -0.232541533952E+04    0.10159E-01   -0.86990E-03  5585   0.420E-02    0.220E-01
RMM:   5    -0.232541497388E+04    0.36564E-03   -0.19049E-03  4432   0.207E-02    0.147E-01
RMM:   6    -0.232541475111E+04    0.22277E-03   -0.31710E-04  3619   0.859E-03    0.518E-02
RMM:   7    -0.232541475955E+04   -0.84399E-05   -0.11781E-04  3062   0.586E-03    0.529E-02
RMM:   8    -0.232541472727E+04    0.32281E-04   -0.46588E-05  2946   0.464E-03    0.140E-02
RMM:   9    -0.232541472912E+04   -0.18441E-05   -0.12803E-05  2911   0.300E-03
  13 F= -.23468649E+04 E0= -.23468640E+04  d E =-.171938E-02  mag=     2.9815
       N       E                     dE             d eps       ncg     rms          rms(c)
DAV:   1    -0.232539709632E+04    0.17631E-01   -0.54938E+00  4480   0.113E+00    0.460E-01
RMM:   2    -0.232539651822E+04    0.57810E-03   -0.28347E-02  4432   0.809E-02    0.267E-01
RMM:   3    -0.232539667419E+04   -0.15598E-03   -0.41133E-03  5445   0.357E-02    0.341E-01
RMM:   4    -0.232539571372E+04    0.96047E-03   -0.23580E-03  5013   0.211E-02    0.225E-01
RMM:   5    -0.232539541099E+04    0.30273E-03   -0.82218E-04  3755   0.123E-02    0.158E-01
RMM:   6    -0.232539514456E+04    0.26642E-03   -0.26106E-04  3216   0.845E-03    0.339E-02
RMM:   7    -0.232539515296E+04   -0.84014E-05   -0.67391E-05  2928   0.443E-03
  14 F= -.23468459E+04 E0= -.23468450E+04  d E =-.184090E-02  mag=     2.9812
       N       E                     dE             d eps       ncg     rms          rms(c)
DAV:   1    -0.232542956645E+04   -0.34422E-01   -0.12524E+00  4880   0.486E-01    0.643E-01
RMM:   2    -0.232542298959E+04    0.65769E-02   -0.26288E-02  5105   0.610E-02    0.331E-01
RMM:   3    -0.232542235623E+04    0.63335E-03   -0.43009E-03  4449   0.365E-02    0.351E-01
RMM:   4    -0.232542252808E+04   -0.17185E-03   -0.33182E-03  4974   0.228E-02    0.361E-01
RMM:   5    -0.232542132065E+04    0.12074E-02   -0.99163E-04  4592   0.153E-02    0.116E-01
RMM:   6    -0.232542116636E+04    0.15429E-03   -0.39399E-04  3556   0.101E-02    0.607E-02
RMM:   7    -0.232542110944E+04    0.56926E-04   -0.50777E-05  2965   0.488E-03    0.132E-02
RMM:   8    -0.232542111006E+04   -0.62346E-06   -0.13767E-05  2757   0.260E-03
  15 F= -.23468706E+04 E0= -.23468697E+04  d E =-.181357E-02  mag=     2.9808
       N       E                     dE             d eps       ncg     rms          rms(c)
DAV:   1    -0.232541678830E+04    0.43211E-02   -0.62499E-01  5040   0.336E-01    0.408E-01
RMM:   2    -0.232541462576E+04    0.21625E-02   -0.10708E-02  4843   0.385E-02    0.247E-01
RMM:   3    -0.232541641816E+04   -0.17924E-02   -0.37330E-03  4694   0.283E-02    0.500E-01
RMM:   4    -0.232541387900E+04    0.25392E-02   -0.18279E-03  4586   0.186E-02    0.121E-01
RMM:   5    -0.232541379316E+04    0.85846E-04   -0.36850E-04  3466   0.899E-03    0.870E-02
RMM:   6    -0.232541373225E+04    0.60906E-04   -0.15246E-04  2950   0.676E-03    0.428E-02
RMM:   7    -0.232541371352E+04    0.18732E-04   -0.20834E-05  2781   0.332E-03    0.139E-02
RMM:   8    -0.232541371217E+04    0.13520E-05   -0.79827E-06  2529   0.209E-03
  16 F= -.23468636E+04 E0= -.23468626E+04  d E =-.192731E-02  mag=     2.9799
       N       E                     dE             d eps       ncg     rms          rms(c)
DAV:   1    -0.232542176508E+04   -0.80516E-02   -0.12072E+00  4480   0.442E-01    0.352E-01
RMM:   2    -0.232542182463E+04   -0.59549E-04   -0.46664E-03  3945   0.294E-02    0.270E-01
RMM:   3    -0.232542355456E+04   -0.17299E-02   -0.31248E-03  5076   0.233E-02    0.465E-01
RMM:   4    -0.232542156863E+04    0.19859E-02   -0.17313E-03  4275   0.185E-02    0.158E-01
RMM:   5    -0.232542128327E+04    0.28536E-03   -0.46073E-04  3395   0.114E-02    0.462E-02
RMM:   6    -0.232542126722E+04    0.16049E-04   -0.58983E-05  2881   0.437E-03    0.248E-02
RMM:   7    -0.232542126087E+04    0.63463E-05   -0.17597E-05  2686   0.277E-03
  17 F= -.23468716E+04 E0= -.23468707E+04  d E =-.172259E-02  mag=     2.9812
       N       E                     dE             d eps       ncg     rms          rms(c)
DAV:   1    -0.232540814056E+04    0.13127E-01   -0.61051E-01  4640   0.319E-01    0.243E-01
RMM:   2    -0.232540809114E+04    0.49410E-04   -0.29173E-03  4043   0.212E-02    0.168E-01
RMM:   3    -0.232540909553E+04   -0.10044E-02   -0.15377E-03  4294   0.175E-02    0.350E-01
RMM:   4    -0.232540790155E+04    0.11940E-02   -0.78542E-04  3841   0.133E-02    0.555E-02
RMM:   5    -0.232540791046E+04   -0.89146E-05   -0.16637E-04  3076   0.719E-03    0.583E-02
RMM:   6    -0.232540786354E+04    0.46920E-04   -0.42140E-05  2755   0.414E-03    0.132E-02
RMM:   7    -0.232540786266E+04    0.88361E-06   -0.84648E-06  2547   0.189E-03
  18 F= -.23468583E+04 E0= -.23468575E+04  d E =-.174067E-02  mag=     2.9816
       N       E                     dE             d eps       ncg     rms          rms(c)
DAV:   1    -0.232542765020E+04   -0.19787E-01   -0.11980E+00  4480   0.455E-01    0.344E-01
RMM:   2    -0.232542754665E+04    0.10355E-03   -0.49261E-03  4422   0.299E-02    0.214E-01
RMM:   3    -0.232542850426E+04   -0.95761E-03   -0.24628E-03  5044   0.234E-02    0.328E-01
RMM:   4    -0.232542735398E+04    0.11503E-02   -0.12302E-03  4449   0.161E-02    0.688E-02
RMM:   5    -0.232542733831E+04    0.15665E-04   -0.17404E-04  3046   0.690E-03    0.592E-02
RMM:   6    -0.232542729863E+04    0.39681E-04   -0.54016E-05  2780   0.419E-03    0.222E-02
RMM:   7    -0.232542730075E+04   -0.21194E-05   -0.18298E-05  2670   0.240E-03
  19 F= -.23468770E+04 E0= -.23468761E+04  d E =-.186987E-02  mag=     2.9805
       N       E                     dE             d eps       ncg     rms          rms(c)
DAV:   1    -0.232540365717E+04    0.23641E-01   -0.58038E-01  4480   0.356E-01    0.225E-01
RMM:   2    -0.232540371950E+04   -0.62331E-04   -0.29139E-03  3876   0.237E-02    0.157E-01
RMM:   3    -0.232540458797E+04   -0.86847E-03   -0.13349E-03  4601   0.158E-02    0.319E-01
RMM:   4    -0.232540353883E+04    0.10491E-02   -0.76423E-04  3680   0.116E-02    0.800E-02
RMM:   5    -0.232540349533E+04    0.43497E-04   -0.21256E-04  2961   0.694E-03    0.493E-02
RMM:   6    -0.232540346952E+04    0.25804E-04   -0.38398E-05  2760   0.388E-03    0.176E-02
RMM:   7    -0.232540347040E+04   -0.87413E-06   -0.12962E-05  2624   0.213E-03
  20 F= -.23468531E+04 E0= -.23468521E+04  d E =-.215708E-02  mag=     2.9779
       N       E                     dE             d eps       ncg     rms          rms(c)
DAV:   1    -0.232543471093E+04   -0.31241E-01   -0.11242E+00  4480   0.463E-01    0.286E-01
RMM:   2    -0.232543463640E+04    0.74527E-04   -0.44454E-03  3921   0.278E-02    0.210E-01
RMM:   3    -0.232543586750E+04   -0.12311E-02   -0.21651E-03  4627   0.204E-02    0.409E-01
RMM:   4    -0.232543419334E+04    0.16742E-02   -0.12373E-03  4343   0.142E-02    0.511E-02
RMM:   5    -0.232543421644E+04   -0.23095E-04   -0.20782E-04  3134   0.632E-03    0.594E-02
RMM:   6    -0.232543417423E+04    0.42201E-04   -0.73605E-05  2791   0.484E-03    0.268E-02
RMM:   7    -0.232543416868E+04    0.55515E-05   -0.16123E-05  2725   0.251E-03
  21 F= -.23468847E+04 E0= -.23468839E+04  d E =-.153478E-02  mag=     2.9824
       N       E                     dE             d eps       ncg     rms          rms(c)
DAV:   1    -0.232543907671E+04   -0.49025E-02   -0.56291E-01  4480   0.327E-01    0.206E-01
RMM:   2    -0.232543893128E+04    0.14543E-03   -0.16963E-03  3620   0.184E-02    0.130E-01
RMM:   3    -0.232543956713E+04   -0.63584E-03   -0.10708E-03  3438   0.147E-02    0.276E-01
RMM:   4    -0.232543881997E+04    0.74716E-03   -0.56634E-04  3662   0.102E-02    0.691E-02
RMM:   5    -0.232543880370E+04    0.16269E-04   -0.18335E-04  2997   0.653E-03    0.546E-02
RMM:   6    -0.232543876243E+04    0.41273E-04   -0.42786E-05  2751   0.423E-03    0.196E-02
RMM:   7    -0.232543876262E+04   -0.19748E-06   -0.13887E-05  2611   0.230E-03
  22 F= -.23468895E+04 E0= -.23468886E+04  d E =-.182708E-02  mag=     2.9811
       N       E                     dE             d eps       ncg     rms          rms(c)
DAV:   1    -0.232539882293E+04    0.39940E-01   -0.11048E+00  4480   0.464E-01    0.280E-01
RMM:   2    -0.232539837780E+04    0.44513E-03   -0.46398E-03  4521   0.322E-02    0.184E-01
RMM:   3    -0.232539891926E+04   -0.54146E-03   -0.22621E-03  4121   0.269E-02    0.250E-01
RMM:   4    -0.232539813049E+04    0.78876E-03   -0.82804E-04  4527   0.136E-02    0.132E-01
RMM:   5    -0.232539802400E+04    0.10649E-03   -0.28646E-04  3019   0.705E-03    0.823E-02
RMM:   6    -0.232539796648E+04    0.57521E-04   -0.68088E-05  2853   0.494E-03    0.301E-02
RMM:   7    -0.232539796343E+04    0.30490E-05   -0.27119E-05  2709   0.319E-03
  23 F= -.23468474E+04 E0= -.23468465E+04  d E =-.179056E-02  mag=     2.9809
       N       E                     dE             d eps       ncg     rms          rms(c)
DAV:   1    -0.232541844375E+04   -0.20477E-01   -0.57397E-01  4480   0.339E-01    0.231E-01
RMM:   2    -0.232541963017E+04   -0.11864E-02   -0.52478E-03  4809   0.328E-02    0.355E-01
RMM:   3    -0.232541802626E+04    0.16039E-02   -0.15789E-03  4926   0.188E-02    0.141E-01
RMM:   4    -0.232541831898E+04   -0.29272E-03   -0.90744E-04  3666   0.114E-02    0.219E-01
RMM:   5    -0.232541786709E+04    0.45189E-03   -0.44252E-04  3803   0.902E-03    0.633E-02
RMM:   6    -0.232541783338E+04    0.33718E-04   -0.95147E-05  2809   0.472E-03    0.371E-02
RMM:   7    -0.232541781644E+04    0.16939E-04   -0.18411E-05  2644   0.289E-03    0.117E-02
RMM:   8    -0.232541781496E+04    0.14756E-05   -0.59343E-06  2511   0.169E-03
  24 F= -.23468679E+04 E0= -.23468671E+04  d E =-.172740E-02  mag=     2.9816
       N       E                     dE             d eps       ncg     rms          rms(c)
DAV:   1    -0.232541431134E+04    0.35051E-02   -0.11219E+00  4480   0.485E-01    0.375E-01
RMM:   2    -0.232541800645E+04   -0.36951E-02   -0.15280E-02  5571   0.565E-02    0.608E-01
RMM:   3    -0.232541313398E+04    0.48725E-02   -0.41780E-03  5772   0.309E-02    0.223E-01
RMM:   4    -0.232541351967E+04   -0.38569E-03   -0.17587E-03  4395   0.161E-02    0.305E-01
RMM:   5    -0.232541270599E+04    0.81368E-03   -0.94104E-04  4202   0.123E-02    0.119E-01
RMM:   6    -0.232541261744E+04    0.88548E-04   -0.32279E-04  3249   0.797E-03    0.847E-02
RMM:   7    -0.232541252052E+04    0.96928E-04   -0.82485E-05  2940   0.562E-03    0.194E-02
RMM:   8    -0.232541251606E+04    0.44583E-05   -0.15825E-05  2835   0.254E-03
  25 F= -.23468626E+04 E0= -.23468616E+04  d E =-.189518E-02  mag=     2.9801
       N       E                     dE             d eps       ncg     rms          rms(c)
DAV:   1    -0.232539110238E+04    0.21418E-01   -0.58137E-01  5040   0.356E-01    0.395E-01
RMM:   2    -0.232539065611E+04    0.44627E-03   -0.14496E-02  4928   0.510E-02    0.338E-01
RMM:   3    -0.232539078905E+04   -0.13293E-03   -0.45877E-03  5637   0.335E-02    0.366E-01
RMM:   4    -0.232538972461E+04    0.10644E-02   -0.14273E-03  4621   0.168E-02    0.240E-01
RMM:   5    -0.232538922297E+04    0.50164E-03   -0.64794E-04  3615   0.112E-02    0.102E-01
RMM:   6    -0.232538928383E+04   -0.60859E-04   -0.34141E-04  3597   0.918E-03    0.112E-01
RMM:   7    -0.232538912558E+04    0.15825E-03   -0.11683E-04  2962   0.643E-03    0.147E-02
RMM:   8    -0.232538912177E+04    0.38123E-05   -0.18266E-05  2799   0.272E-03
  26 F= -.23468390E+04 E0= -.23468381E+04  d E =-.177087E-02  mag=     2.9809
       N       E                     dE             d eps       ncg     rms          rms(c)
DAV:   1    -0.232541630943E+04   -0.27184E-01   -0.11709E+00  5120   0.398E-01    0.730E-01
RMM:   2    -0.232541071226E+04    0.55972E-02   -0.54529E-02  4468   0.829E-02    0.329E-01
RMM:   3    -0.232541097365E+04   -0.26140E-03   -0.50801E-03  4494   0.510E-02    0.398E-01
RMM:   4    -0.232540986672E+04    0.11069E-02   -0.26138E-03  4897   0.227E-02    0.271E-01
RMM:   5    -0.232540995503E+04   -0.88313E-04   -0.16972E-03  4399   0.169E-02    0.279E-01
RMM:   6    -0.232540922314E+04    0.73189E-03   -0.77121E-04  4026   0.135E-02    0.591E-02
RMM:   7    -0.232540920097E+04    0.22166E-04   -0.10682E-04  3015   0.596E-03    0.429E-02
RMM:   8    -0.232540917400E+04    0.26972E-04   -0.31786E-05  2878   0.391E-03    0.130E-02
RMM:   9    -0.232540917531E+04   -0.13126E-05   -0.39623E-05  2931   0.314E-03
  27 F= -.23468594E+04 E0= -.23468585E+04  d E =-.186147E-02  mag=     2.9805
       N       E                     dE             d eps       ncg     rms          rms(c)
DAV:   1    -0.232542351418E+04   -0.14340E-01   -0.54727E-01  4640   0.267E-01    0.316E-01
RMM:   2    -0.232542298806E+04    0.52611E-03   -0.80426E-03  4300   0.347E-02    0.167E-01
RMM:   3    -0.232542341624E+04   -0.42818E-03   -0.11498E-03  4376   0.201E-02    0.226E-01
RMM:   4    -0.232542300301E+04    0.41324E-03   -0.69217E-04  3854   0.123E-02    0.121E-01
RMM:   5    -0.232542311605E+04   -0.11304E-03   -0.37767E-04  3445   0.928E-03    0.145E-01
RMM:   6    -0.232542291465E+04    0.20141E-03   -0.16011E-04  3008   0.723E-03    0.190E-02
RMM:   7    -0.232542291228E+04    0.23646E-05   -0.15285E-05  2865   0.329E-03
  28 F= -.23468726E+04 E0= -.23468717E+04  d E =-.173702E-02  mag=     2.9812
       N       E                     dE             d eps       ncg     rms          rms(c)
DAV:   1    -0.232541120715E+04    0.11707E-01   -0.10982E+00  4480   0.351E-01    0.317E-01
RMM:   2    -0.232541178223E+04   -0.57508E-03   -0.42907E-03  4146   0.293E-02    0.187E-01
RMM:   3    -0.232541252867E+04   -0.74644E-03   -0.10474E-03  4816   0.179E-02    0.179E-01
RMM:   4    -0.232541220558E+04    0.32309E-03   -0.59708E-04  3955   0.122E-02    0.798E-02
RMM:   5    -0.232541228646E+04   -0.80879E-04   -0.21455E-04  3334   0.792E-03    0.100E-01
RMM:   6    -0.232541216354E+04    0.12291E-03   -0.75799E-05  2951   0.573E-03    0.250E-02
RMM:   7    -0.232541215813E+04    0.54119E-05   -0.14440E-05  2811   0.277E-03
  29 F= -.23468627E+04 E0= -.23468617E+04  d E =-.189514E-02  mag=     2.9804
       N       E                     dE             d eps       ncg     rms          rms(c)
DAV:   1    -0.232542444280E+04   -0.12279E-01   -0.55124E-01  4480   0.255E-01    0.215E-01
RMM:   2    -0.232542489338E+04   -0.45057E-03   -0.24283E-03  3941   0.213E-02    0.132E-01
RMM:   3    -0.232542535563E+04   -0.46225E-03   -0.76233E-04  4574   0.142E-02    0.141E-01
RMM:   4    -0.232542509583E+04    0.25980E-03   -0.29668E-04  3372   0.915E-03    0.395E-02
RMM:   5    -0.232542509784E+04   -0.20176E-05   -0.59609E-05  2909   0.466E-03
  30 F= -.23468753E+04 E0= -.23468744E+04  d E =-.184826E-02  mag=     2.9804
       N       E                     dE             d eps       ncg     rms          rms(c)
DAV:   1    -0.232540931238E+04    0.15783E-01   -0.10782E+00  4480   0.361E-01    0.338E-01
RMM:   2    -0.232540990775E+04   -0.59538E-03   -0.57373E-03  4135   0.321E-02    0.199E-01
RMM:   3    -0.232541079350E+04   -0.88575E-03   -0.12349E-03  4854   0.182E-02    0.271E-01
RMM:   4    -0.232541029678E+04    0.49672E-03   -0.89887E-04  3799   0.126E-02    0.117E-01
RMM:   5    -0.232541029862E+04   -0.18408E-05   -0.25579E-04  3410   0.868E-03    0.856E-02
RMM:   6    -0.232541020540E+04    0.93225E-04   -0.80675E-05  2944   0.581E-03    0.184E-02
RMM:   7    -0.232541020579E+04   -0.39284E-06   -0.15296E-05  2811   0.289E-03
  31 F= -.23468602E+04 E0= -.23468593E+04  d E =-.174740E-02  mag=     2.9809
