       N       E                     dE             d eps       ncg     rms          rms(c)
DAV:   1     0.127534135448E+05    0.12753E+05   -0.83056E+05  4432   0.144E+03
DAV:   2    -0.106490458102E+04   -0.13818E+05   -0.13239E+05  5296   0.330E+02
DAV:   3    -0.247022368682E+04   -0.14053E+04   -0.13923E+04  5352   0.111E+02
DAV:   4    -0.251678891685E+04   -0.46565E+02   -0.46346E+02  6672   0.303E+01
DAV:   5    -0.251764218623E+04   -0.85327E+00   -0.85183E+00  5568   0.328E+00    0.170E+02
RMM:   6    -0.147298202798E+04    0.10447E+04   -0.19468E+03  4401   0.387E+01    0.726E+01
RMM:   7    -0.165331794389E+04   -0.18034E+03   -0.28778E+02  4978   0.139E+01    0.530E+01
RMM:   8    -0.169891405914E+04   -0.45596E+02   -0.75441E+01  5098   0.795E+00    0.430E+01
RMM:   9    -0.178669619423E+04   -0.87782E+02   -0.61622E+01  4916   0.777E+00    0.335E+01
RMM:  10    -0.189564154320E+04   -0.10895E+03   -0.49616E+01  5004   0.663E+00    0.221E+01
RMM:  11    -0.200382595448E+04   -0.10818E+03   -0.40171E+01  4989   0.534E+00    0.157E+01
RMM:  12    -0.214031912931E+04   -0.13649E+03   -0.86923E+01  4464   0.693E+00    0.127E+01
RMM:  13    -0.225644489557E+04   -0.11613E+03   -0.10330E+02  4449   0.720E+00    0.127E+01
RMM:  14    -0.227728986940E+04   -0.20845E+02   -0.18730E+01  4615   0.410E+00    0.893E+00
RMM:  15    -0.230213136253E+04   -0.24841E+02   -0.24007E+01  4404   0.325E+00    0.368E+00
RMM:  16    -0.231046338824E+04   -0.83320E+01   -0.74065E+00  4443   0.226E+00    0.196E+00
RMM:  17    -0.231335331039E+04   -0.28899E+01   -0.32901E+00  5031   0.919E-01    0.149E+00
RMM:  18    -0.231402251833E+04   -0.66921E+00   -0.75366E-01  4920   0.540E-01    0.124E+00
RMM:  19    -0.231448511880E+04   -0.46260E+00   -0.47941E-01  4525   0.374E-01    0.139E+00
RMM:  20    -0.231467183050E+04   -0.18671E+00   -0.17576E-01  4675   0.279E-01    0.492E-01
RMM:  21    -0.231471314175E+04   -0.41311E-01   -0.45197E-02  4946   0.139E-01    0.378E-01
RMM:  22    -0.231473396647E+04   -0.20825E-01   -0.12228E-02  4537   0.777E-02    0.160E-01
RMM:  23    -0.231475154369E+04   -0.17577E-01   -0.63856E-03  4514   0.572E-02    0.127E-01
RMM:  24    -0.231476405309E+04   -0.12509E-01   -0.32336E-03  4471   0.437E-02    0.943E-02
RMM:  25    -0.231477230056E+04   -0.82475E-02   -0.20617E-03  4464   0.346E-02    0.469E-02
RMM:  26    -0.231477718083E+04   -0.48803E-02   -0.13577E-03  4350   0.281E-02    0.375E-02
RMM:  27    -0.231477918411E+04   -0.20033E-02   -0.68518E-04  4264   0.195E-02    0.133E-02
RMM:  28    -0.231477966854E+04   -0.48443E-03   -0.16373E-04  3879   0.110E-02    0.739E-03
RMM:  29    -0.231477987338E+04   -0.20484E-03   -0.53573E-05  3480   0.672E-03    0.432E-03
RMM:  30    -0.231477994721E+04   -0.73825E-04   -0.19808E-05  3006   0.492E-03    0.264E-03
RMM:  31    -0.231477997762E+04   -0.30416E-04   -0.90856E-06  2831   0.343E-03    0.185E-03
RMM:  32    -0.231477999223E+04   -0.14605E-04   -0.56860E-06  2759   0.277E-03    0.109E-03
RMM:  33    -0.231477999491E+04   -0.26842E-05   -0.26977E-06  2410   0.214E-03
   1 F= -.23352364E+04 E0= -.23352364E+04  d E =-.233524E+04  mag=     4.0000
       N       E                     dE             d eps       ncg     rms          rms(c)
DAV:   1    -0.231517918889E+04   -0.39920E+00   -0.31709E+01  4784   0.429E+00    0.183E+00
RMM:   2    -0.231532026170E+04   -0.14107E+00   -0.22230E+00  5951   0.889E-01    0.121E+00
RMM:   3    -0.231531926752E+04    0.99418E-03   -0.17898E-01  5630   0.340E-01    0.161E+00
RMM:   4    -0.231529841057E+04    0.20857E-01   -0.25406E-02  5692   0.959E-02    0.556E-01
RMM:   5    -0.231529125821E+04    0.71524E-02   -0.20434E-02  4591   0.985E-02    0.212E-01
RMM:   6    -0.231529034866E+04    0.90955E-03   -0.39111E-03  4889   0.612E-02    0.976E-02
RMM:   7    -0.231529014387E+04    0.20479E-03   -0.10035E-03  5069   0.214E-02    0.568E-02
RMM:   8    -0.231529002978E+04    0.11410E-03   -0.20611E-04  4456   0.158E-02    0.296E-02
RMM:   9    -0.231528998180E+04    0.47980E-04   -0.13461E-04  4202   0.962E-03    0.166E-02
RMM:  10    -0.231528997219E+04    0.96099E-05   -0.20576E-05  2961   0.628E-03
   2 F= -.23357469E+04 E0= -.23357469E+04  d E =-.510462E+00  mag=     4.0000
       N       E                     dE             d eps       ncg     rms          rms(c)
DAV:   1    -0.231531668670E+04   -0.26705E-01   -0.30239E+01  4584   0.448E+00    0.169E+00
RMM:   2    -0.231544678662E+04   -0.13010E+00   -0.19155E+00  6001   0.872E-01    0.138E+00
RMM:   3    -0.231545407196E+04   -0.72853E-02   -0.16897E-01  5797   0.329E-01    0.171E+00
RMM:   4    -0.231542908025E+04    0.24992E-01   -0.24503E-02  5771   0.984E-02    0.485E-01
RMM:   5    -0.231542288384E+04    0.61964E-02   -0.18796E-02  4729   0.922E-02    0.194E-01
RMM:   6    -0.231542194107E+04    0.94277E-03   -0.32925E-03  4993   0.556E-02    0.886E-02
RMM:   7    -0.231542175487E+04    0.18619E-03   -0.93305E-04  5019   0.196E-02    0.510E-02
RMM:   8    -0.231542164610E+04    0.10877E-03   -0.19072E-04  4393   0.149E-02    0.266E-02
RMM:   9    -0.231542160170E+04    0.44407E-04   -0.12505E-04  4112   0.932E-03    0.167E-02
RMM:  10    -0.231542159314E+04    0.85567E-05   -0.19415E-05  2952   0.611E-03
   3 F= -.23358788E+04 E0= -.23358788E+04  d E =-.642347E+00  mag=     4.0000
       N       E                     dE             d eps       ncg     rms          rms(c)
DAV:   1    -0.231561180155E+04   -0.19020E+00   -0.25242E+01  4528   0.440E+00    0.170E+00
RMM:   2    -0.231574951410E+04   -0.13771E+00   -0.15650E+00  5981   0.824E-01    0.135E+00
RMM:   3    -0.231576162057E+04   -0.12106E-01   -0.14342E-01  5838   0.305E-01    0.178E+00
RMM:   4    -0.231573457617E+04    0.27044E-01   -0.20754E-02  5868   0.883E-02    0.305E-01
RMM:   5    -0.231573292623E+04    0.16499E-02   -0.80260E-03  4762   0.609E-02    0.185E-01
RMM:   6    -0.231573260571E+04    0.32053E-03   -0.13850E-03  5214   0.331E-02    0.508E-02
RMM:   7    -0.231573253736E+04    0.68345E-04   -0.27681E-04  4384   0.121E-02    0.288E-02
RMM:   8    -0.231573249853E+04    0.38832E-04   -0.52715E-05  3386   0.731E-03    0.144E-02
RMM:   9    -0.231573247572E+04    0.22817E-04   -0.43364E-05  3321   0.578E-03    0.100E-02
RMM:  10    -0.231573247051E+04    0.52088E-05   -0.10940E-05  2843   0.451E-03
   4 F= -.23361892E+04 E0= -.23361892E+04  d E =-.310408E+00  mag=     4.0000
       N       E                     dE             d eps       ncg     rms          rms(c)
DAV:   1    -0.231562207666E+04    0.11040E+00   -0.62321E+01  4420   0.708E+00    0.262E+00
RMM:   2    -0.231596896130E+04   -0.34688E+00   -0.36894E+00  5920   0.132E+00    0.239E+00
RMM:   3    -0.231598797849E+04   -0.19017E-01   -0.34731E-01  5775   0.469E-01    0.256E+00
RMM:   4    -0.231592854669E+04    0.59432E-01   -0.47632E-02  5712   0.140E-01    0.479E-01
RMM:   5    -0.231592498695E+04    0.35597E-02   -0.19316E-02  4803   0.956E-02    0.310E-01
RMM:   6    -0.231592408637E+04    0.90058E-03   -0.37365E-03  5373   0.529E-02    0.885E-02
RMM:   7    -0.231592395001E+04    0.13635E-03   -0.77166E-04  4871   0.244E-02    0.444E-02
RMM:   8    -0.231592387597E+04    0.74040E-04   -0.12863E-04  4141   0.963E-03    0.252E-02
RMM:   9    -0.231592383750E+04    0.38472E-04   -0.64223E-05  3600   0.750E-03    0.157E-02
RMM:  10    -0.231592382368E+04    0.13820E-04   -0.27159E-05  3083   0.536E-03    0.810E-03
RMM:  11    -0.231592382121E+04    0.24762E-05   -0.22244E-05  2965   0.487E-03
   5 F= -.23363790E+04 E0= -.23363790E+04  d E =-.500248E+00  mag=     4.0000
       N       E                     dE             d eps       ncg     rms          rms(c)
DAV:   1    -0.231596169556E+04   -0.37872E-01   -0.89250E+00  4656   0.280E+00    0.990E-01
RMM:   2    -0.231607864444E+04   -0.11695E+00   -0.11930E+00  6071   0.616E-01    0.115E+00
RMM:   3    -0.231608184446E+04   -0.32000E-02   -0.11424E-01  5863   0.197E-01    0.921E-01
RMM:   4    -0.231607508951E+04    0.67549E-02   -0.11809E-02  5304   0.574E-02    0.260E-01
RMM:   5    -0.231607401363E+04    0.10759E-02   -0.39815E-03  4994   0.456E-02    0.167E-01
RMM:   6    -0.231607371436E+04    0.29927E-03   -0.80196E-04  5009   0.253E-02    0.449E-02
RMM:   7    -0.231607366983E+04    0.44533E-04   -0.23388E-04  4323   0.110E-02    0.232E-02
RMM:   8    -0.231607365326E+04    0.16569E-04   -0.40213E-05  3246   0.696E-03    0.133E-02
RMM:   9    -0.231607364512E+04    0.81474E-05   -0.22304E-05  2994   0.484E-03
   6 F= -.23365265E+04 E0= -.23365265E+04  d E =-.147451E+00  mag=     4.0000
       N       E                     dE             d eps       ncg     rms          rms(c)
DAV:   1    -0.231598581577E+04    0.87837E-01   -0.12097E+01  4528   0.328E+00    0.116E+00
RMM:   2    -0.231614669264E+04   -0.16088E+00   -0.16305E+00  6087   0.723E-01    0.138E+00
RMM:   3    -0.231615014107E+04   -0.34484E-02   -0.14945E-01  5878   0.233E-01    0.109E+00
RMM:   4    -0.231614051410E+04    0.96270E-02   -0.16307E-02  5305   0.690E-02    0.315E-01
RMM:   5    -0.231613907527E+04    0.14388E-02   -0.60466E-03  4997   0.555E-02    0.219E-01
RMM:   6    -0.231613858232E+04    0.49295E-03   -0.11463E-03  5137   0.301E-02    0.529E-02
RMM:   7    -0.231613852729E+04    0.55026E-04   -0.35341E-04  4533   0.128E-02    0.307E-02
RMM:   8    -0.231613850681E+04    0.20481E-04   -0.51595E-05  3426   0.790E-03    0.156E-02
RMM:   9    -0.231613849822E+04    0.85880E-05   -0.29431E-05  3135   0.526E-03
   7 F= -.23365884E+04 E0= -.23365884E+04  d E =-.209376E+00  mag=     4.0000
       N       E                     dE             d eps       ncg     rms          rms(c)
DAV:   1    -0.231612421097E+04    0.14296E-01   -0.74019E+00  4512   0.268E+00    0.936E-01
RMM:   2    -0.231621149154E+04   -0.87281E-01   -0.90618E-01  6028   0.540E-01    0.720E-01
RMM:   3    -0.231622034862E+04   -0.88571E-02   -0.80783E-02  5788   0.169E-01    0.104E+00
RMM:   4    -0.231621189774E+04    0.84509E-02   -0.10086E-02  5744   0.494E-02    0.191E-01
RMM:   5    -0.231621131688E+04    0.58085E-03   -0.26307E-03  4851   0.303E-02    0.138E-01
RMM:   6    -0.231621110814E+04    0.20875E-03   -0.67858E-04  4943   0.205E-02    0.333E-02
RMM:   7    -0.231621110027E+04    0.78639E-05   -0.10878E-04  4000   0.101E-02    0.147E-02
RMM:   8    -0.231621109823E+04    0.20474E-05   -0.17954E-05  2915   0.460E-03
   8 F= -.23366601E+04 E0= -.23366601E+04  d E =-.717331E-01  mag=     4.0000
       N       E                     dE             d eps       ncg     rms          rms(c)
DAV:   1    -0.231600195385E+04    0.20915E+00   -0.22586E+01  4420   0.469E+00    0.164E+00
RMM:   2    -0.231626248118E+04   -0.26053E+00   -0.27307E+00  6007   0.925E-01    0.109E+00
RMM:   3    -0.231629524695E+04   -0.32766E-01   -0.25317E-01  5778   0.294E-01    0.184E+00
RMM:   4    -0.231626883156E+04    0.26415E-01   -0.30259E-02  5951   0.857E-02    0.340E-01
RMM:   5    -0.231626720694E+04    0.16246E-02   -0.84103E-03  4839   0.503E-02    0.232E-01
RMM:   6    -0.231626651761E+04    0.68933E-03   -0.22046E-03  5190   0.360E-02    0.681E-02
RMM:   7    -0.231626649368E+04    0.23929E-04   -0.38026E-04  5017   0.199E-02    0.340E-02
RMM:   8    -0.231626648628E+04    0.74039E-05   -0.70481E-05  3321   0.706E-03
   9 F= -.23367136E+04 E0= -.23367136E+04  d E =-.125228E+00  mag=     4.0000
       N       E                     dE             d eps       ncg     rms          rms(c)
DAV:   1    -0.231626729209E+04   -0.79840E-03   -0.66725E+00  4464   0.255E+00    0.776E-01
RMM:   2    -0.231632592618E+04   -0.58634E-01   -0.61545E-01  5890   0.484E-01    0.613E-01
RMM:   3    -0.231633058180E+04   -0.46556E-02   -0.50339E-02  5675   0.152E-01    0.848E-01
RMM:   4    -0.231632498726E+04    0.55945E-02   -0.66076E-03  5562   0.446E-02    0.179E-01
RMM:   5    -0.231632436334E+04    0.62392E-03   -0.22837E-03  4872   0.317E-02    0.110E-01
RMM:   6    -0.231632421040E+04    0.15294E-03   -0.55907E-04  4835   0.194E-02    0.309E-02
RMM:   7    -0.231632419456E+04    0.15838E-04   -0.10764E-04  4073   0.901E-03    0.168E-02
RMM:   8    -0.231632419161E+04    0.29536E-05   -0.23213E-05  3000   0.535E-03
  10 F= -.23367708E+04 E0= -.23367708E+04  d E =-.571442E-01  mag=     4.0000
       N       E                     dE             d eps       ncg     rms          rms(c)
DAV:   1    -0.231623688900E+04    0.87306E-01   -0.13904E+01  4436   0.369E+00    0.112E+00
RMM:   2    -0.231635826144E+04   -0.12137E+00   -0.12807E+00  5881   0.701E-01    0.842E-01
RMM:   3    -0.231636939299E+04   -0.11132E-01   -0.10675E-01  5631   0.218E-01    0.125E+00
RMM:   4    -0.231635733853E+04    0.12054E-01   -0.13838E-02  5705   0.649E-02    0.261E-01
RMM:   5    -0.231635604880E+04    0.12897E-02   -0.46247E-03  4899   0.447E-02    0.166E-01
RMM:   6    -0.231635567075E+04    0.37804E-03   -0.12578E-03  5077   0.286E-02    0.468E-02
RMM:   7    -0.231635563001E+04    0.40748E-04   -0.23875E-04  4681   0.131E-02    0.253E-02
RMM:   8    -0.231635562145E+04    0.85571E-05   -0.49452E-05  3340   0.684E-03
  11 F= -.23368013E+04 E0= -.23368013E+04  d E =-.876535E-01  mag=     4.0000
       N       E                     dE             d eps       ncg     rms          rms(c)
DAV:   1    -0.231635944104E+04   -0.38110E-02   -0.57443E+00  4544   0.243E+00    0.617E-01
RMM:   2    -0.231639455096E+04   -0.35110E-01   -0.36801E-01  5782   0.432E-01    0.497E-01
RMM:   3    -0.231639683564E+04   -0.22847E-02   -0.29861E-02  5607   0.134E-01    0.670E-01
RMM:   4    -0.231639344390E+04    0.33917E-02   -0.38378E-03  5515   0.380E-02    0.157E-01
RMM:   5    -0.231639298011E+04    0.46379E-03   -0.15178E-03  4781   0.284E-02    0.849E-02
RMM:   6    -0.231639291509E+04    0.65016E-04   -0.33552E-04  4630   0.174E-02    0.215E-02
RMM:   7    -0.231639291032E+04    0.47690E-05   -0.58477E-05  3445   0.708E-03
  12 F= -.23368377E+04 E0= -.23368377E+04  d E =-.364093E-01  mag=     4.0000
       N       E                     dE             d eps       ncg     rms          rms(c)
DAV:   1    -0.231634793295E+04    0.44982E-01   -0.10970E+01  4408   0.336E+00    0.857E-01
RMM:   2    -0.231641504349E+04   -0.67111E-01   -0.70558E-01  5765   0.601E-01    0.667E-01
RMM:   3    -0.231641973383E+04   -0.46903E-02   -0.57956E-02  5604   0.183E-01    0.928E-01
RMM:   4    -0.231641316159E+04    0.65722E-02   -0.73016E-03  5631   0.526E-02    0.218E-01
RMM:   5    -0.231641226604E+04    0.89555E-03   -0.29433E-03  4820   0.391E-02    0.124E-01
RMM:   6    -0.231641210752E+04    0.15853E-03   -0.71326E-04  4882   0.241E-02    0.310E-02
RMM:   7    -0.231641209036E+04    0.17157E-04   -0.11357E-04  4111   0.950E-03    0.179E-02
RMM:   8    -0.231641208395E+04    0.64155E-05   -0.22848E-05  3009   0.566E-03
  13 F= -.23368556E+04 E0= -.23368556E+04  d E =-.543773E-01  mag=     4.0000
       N       E                     dE             d eps       ncg     rms          rms(c)
DAV:   1    -0.231639458305E+04    0.17507E-01   -0.57549E+00  4512   0.252E+00    0.725E-01
RMM:   2    -0.231643788096E+04   -0.43298E-01   -0.46475E-01  5812   0.471E-01    0.444E-01
RMM:   3    -0.231644193319E+04   -0.40522E-02   -0.44773E-02  5572   0.154E-01    0.747E-01
RMM:   4    -0.231643798704E+04    0.39462E-02   -0.52475E-03  5784   0.409E-02    0.171E-01
RMM:   5    -0.231643743362E+04    0.55342E-03   -0.15883E-03  4794   0.275E-02    0.858E-02
RMM:   6    -0.231643733668E+04    0.96943E-04   -0.47560E-04  4799   0.191E-02    0.277E-02
RMM:   7    -0.231643732251E+04    0.14170E-04   -0.61683E-05  3702   0.776E-03    0.144E-02
RMM:   8    -0.231643731540E+04    0.71031E-05   -0.14214E-05  2894   0.443E-03
  14 F= -.23368801E+04 E0= -.23368801E+04  d E =-.244607E-01  mag=     4.0000
       N       E                     dE             d eps       ncg     rms          rms(c)
DAV:   1    -0.231643128720E+04    0.60353E-02   -0.12465E+00  4624   0.117E+00    0.338E-01
RMM:   2    -0.231644067710E+04   -0.93899E-02   -0.10083E-01  5770   0.219E-01    0.208E-01
RMM:   3    -0.231644154000E+04   -0.86289E-03   -0.96154E-03  5481   0.739E-02    0.351E-01
RMM:   4    -0.231644067202E+04    0.86798E-03   -0.11413E-03  5035   0.193E-02    0.795E-02
RMM:   5    -0.231644053958E+04    0.13244E-03   -0.35840E-04  4462   0.139E-02    0.388E-02
RMM:   6    -0.231644051652E+04    0.23055E-04   -0.96409E-05  3995   0.102E-02    0.127E-02
RMM:   7    -0.231644051248E+04    0.40445E-05   -0.18752E-05  2964   0.500E-03
  15 F= -.23368829E+04 E0= -.23368829E+04  d E =-.273025E-01  mag=     4.0000
       N       E                     dE             d eps       ncg     rms          rms(c)
DAV:   1    -0.231639174022E+04    0.48776E-01   -0.58223E+00  4408   0.247E+00    0.686E-01
RMM:   2    -0.231646252979E+04   -0.70790E-01   -0.75618E-01  5900   0.491E-01    0.359E-01
RMM:   3    -0.231646655108E+04   -0.40213E-02   -0.72281E-02  5502   0.156E-01    0.305E-01
RMM:   4    -0.231646687243E+04   -0.32135E-03   -0.69900E-03  5643   0.351E-02    0.304E-01
RMM:   5    -0.231646596711E+04    0.90532E-03   -0.97757E-04  4748   0.186E-02    0.125E-01
RMM:   6    -0.231646574222E+04    0.22489E-03   -0.84725E-04  4715   0.205E-02    0.568E-02
RMM:   7    -0.231646571762E+04    0.24601E-04   -0.10808E-04  3794   0.133E-02    0.169E-02
RMM:   8    -0.231646571562E+04    0.20006E-05   -0.23173E-05  2919   0.399E-03
  16 F= -.23369072E+04 E0= -.23369072E+04  d E =-.242626E-01  mag=     4.0000
       N       E                     dE             d eps       ncg     rms          rms(c)
DAV:   1    -0.231632829235E+04    0.13743E+00   -0.11943E+01  4408   0.354E+00    0.984E-01
RMM:   2    -0.231647392049E+04   -0.14563E+00   -0.15551E+00  5914   0.702E-01    0.518E-01
RMM:   3    -0.231648146264E+04   -0.75422E-02   -0.14531E-01  5496   0.220E-01    0.375E-01
RMM:   4    -0.231648228068E+04   -0.81804E-03   -0.13825E-02  5760   0.512E-02    0.441E-01
RMM:   5    -0.231648059149E+04    0.16892E-02   -0.20428E-03  5192   0.259E-02    0.203E-01
RMM:   6    -0.231648007927E+04    0.51222E-03   -0.18090E-03  4609   0.283E-02    0.102E-01
RMM:   7    -0.231647998685E+04    0.92418E-04   -0.27887E-04  4121   0.187E-02    0.317E-02
RMM:   8    -0.231647998174E+04    0.51062E-05   -0.62076E-05  3411   0.572E-03
  17 F= -.23369201E+04 E0= -.23369201E+04  d E =-.371874E-01  mag=     4.0000
       N       E                     dE             d eps       ncg     rms          rms(c)
DAV:   1    -0.231642540462E+04    0.54582E-01   -0.52979E+00  4420   0.232E+00    0.688E-01
RMM:   2    -0.231649863642E+04   -0.73232E-01   -0.76239E-01  5971   0.475E-01    0.549E-01
RMM:   3    -0.231650315469E+04   -0.45183E-02   -0.71374E-02  5642   0.149E-01    0.543E-01
RMM:   4    -0.231650119325E+04    0.19614E-02   -0.68368E-03  5662   0.365E-02    0.209E-01
RMM:   5    -0.231650066271E+04    0.53054E-03   -0.11321E-03  4843   0.208E-02    0.112E-01
RMM:   6    -0.231650049776E+04    0.16495E-03   -0.79831E-04  4964   0.185E-02    0.781E-02
RMM:   7    -0.231650045059E+04    0.47169E-04   -0.14172E-04  3798   0.128E-02    0.228E-02
RMM:   8    -0.231650044680E+04    0.37883E-05   -0.25605E-05  2930   0.417E-03
  18 F= -.23369400E+04 E0= -.23369400E+04  d E =-.198398E-01  mag=     4.0000
       N       E                     dE             d eps       ncg     rms          rms(c)
DAV:   1    -0.231630038616E+04    0.20006E+00   -0.15035E+01  4440   0.392E+00    0.116E+00
RMM:   2    -0.231650896702E+04   -0.20858E+00   -0.21690E+00  5961   0.793E-01    0.935E-01
RMM:   3    -0.231652227428E+04   -0.13307E-01   -0.21005E-01  5659   0.251E-01    0.931E-01
RMM:   4    -0.231651654074E+04    0.57335E-02   -0.19152E-02  5784   0.612E-02    0.354E-01
RMM:   5    -0.231651506414E+04    0.14766E-02   -0.32989E-03  5081   0.342E-02    0.195E-01
RMM:   6    -0.231651451754E+04    0.54660E-03   -0.23014E-03  4998   0.302E-02    0.134E-01
RMM:   7    -0.231651436874E+04    0.14880E-03   -0.43018E-04  4576   0.214E-02    0.386E-02
RMM:   8    -0.231651435127E+04    0.17470E-04   -0.80850E-05  3459   0.654E-03    0.183E-02
RMM:   9    -0.231651434379E+04    0.74784E-05   -0.20673E-05  2876   0.521E-03
  19 F= -.23369528E+04 E0= -.23369528E+04  d E =-.327029E-01  mag=     4.0000
       N       E                     dE             d eps       ncg     rms          rms(c)
DAV:   1    -0.231642979073E+04    0.84561E-01   -0.67028E+00  4484   0.253E+00    0.789E-01
RMM:   2    -0.231653448509E+04   -0.10469E+00   -0.10614E+00  6059   0.533E-01    0.859E-01
RMM:   3    -0.231653798734E+04   -0.35022E-02   -0.10057E-01  5735   0.164E-01    0.627E-01
RMM:   4    -0.231653531487E+04    0.26725E-02   -0.94646E-03  5479   0.406E-02    0.216E-01
RMM:   5    -0.231653466207E+04    0.65280E-03   -0.13407E-03  4818   0.227E-02    0.121E-01
RMM:   6    -0.231653451126E+04    0.15081E-03   -0.91513E-04  4976   0.199E-02    0.869E-02
RMM:   7    -0.231653446108E+04    0.50187E-04   -0.15682E-04  3785   0.129E-02    0.285E-02
RMM:   8    -0.231653445650E+04    0.45760E-05   -0.23987E-05  2884   0.439E-03
  20 F= -.23369729E+04 E0= -.23369729E+04  d E =-.200357E-01  mag=     4.0000
       N       E                     dE             d eps       ncg     rms          rms(c)
DAV:   1    -0.231632493452E+04    0.20953E+00   -0.14081E+01  4440   0.367E+00    0.115E+00
RMM:   2    -0.231654617182E+04   -0.22124E+00   -0.22424E+00  6032   0.774E-01    0.125E+00
RMM:   3    -0.231655327992E+04   -0.71081E-02   -0.21329E-01  5722   0.240E-01    0.896E-01
RMM:   4    -0.231654798931E+04    0.52906E-02   -0.19636E-02  5542   0.584E-02    0.311E-01
RMM:   5    -0.231654663855E+04    0.13508E-02   -0.28709E-03  4925   0.326E-02    0.176E-01
RMM:   6    -0.231654630996E+04    0.32858E-03   -0.18458E-03  5066   0.279E-02    0.128E-01
RMM:   7    -0.231654619910E+04    0.11086E-03   -0.35070E-04  4472   0.185E-02    0.418E-02
RMM:   8    -0.231654618750E+04    0.11598E-04   -0.49008E-05  3088   0.573E-03    0.159E-02
RMM:   9    -0.231654618461E+04    0.28880E-05   -0.18935E-05  2867   0.424E-03
  21 F= -.23369845E+04 E0= -.23369845E+04  d E =-.316877E-01  mag=     4.0000
       N       E                     dE             d eps       ncg     rms          rms(c)
DAV:   1    -0.231650327149E+04    0.42916E-01   -0.39526E+00  4496   0.195E+00    0.629E-01
RMM:   2    -0.231655903253E+04   -0.55761E-01   -0.57311E-01  5948   0.407E-01    0.575E-01
RMM:   3    -0.231656217035E+04   -0.31378E-02   -0.57231E-02  5682   0.129E-01    0.506E-01
RMM:   4    -0.231656034265E+04    0.18277E-02   -0.55754E-03  5431   0.329E-02    0.178E-01
RMM:   5    -0.231655992356E+04    0.41909E-03   -0.86096E-04  4753   0.192E-02    0.946E-02
RMM:   6    -0.231655981135E+04    0.11222E-03   -0.65508E-04  4933   0.175E-02    0.745E-02
RMM:   7    -0.231655976397E+04    0.47373E-04   -0.10249E-04  3408   0.111E-02    0.207E-02
RMM:   8    -0.231655975820E+04    0.57750E-05   -0.18309E-05  2871   0.393E-03
  22 F= -.23369984E+04 E0= -.23369984E+04  d E =-.138928E-01  mag=     4.0000
       N       E                     dE             d eps       ncg     rms          rms(c)
DAV:   1    -0.231651023741E+04    0.49527E-01   -0.37805E+00  4472   0.192E+00    0.615E-01
RMM:   2    -0.231656358047E+04   -0.53343E-01   -0.54850E-01  5961   0.400E-01    0.560E-01
RMM:   3    -0.231656654940E+04   -0.29689E-02   -0.54549E-02  5677   0.126E-01    0.492E-01
RMM:   4    -0.231656481042E+04    0.17390E-02   -0.53204E-03  5439   0.323E-02    0.173E-01
RMM:   5    -0.231656440578E+04    0.40463E-03   -0.82775E-04  4744   0.189E-02    0.924E-02
RMM:   6    -0.231656429277E+04    0.11301E-03   -0.62588E-04  4914   0.172E-02    0.724E-02
RMM:   7    -0.231656424656E+04    0.46211E-04   -0.96945E-05  3424   0.110E-02    0.204E-02
RMM:   8    -0.231656424033E+04    0.62329E-05   -0.18411E-05  2871   0.397E-03
  23 F= -.23370032E+04 E0= -.23370032E+04  d E =-.186967E-01  mag=     4.0000
       N       E                     dE             d eps       ncg     rms          rms(c)
DAV:   1    -0.231649959119E+04    0.64655E-01   -0.54785E+00  4440   0.231E+00    0.743E-01
RMM:   2    -0.231657478094E+04   -0.75190E-01   -0.78369E-01  5945   0.474E-01    0.558E-01
RMM:   3    -0.231658015833E+04   -0.53774E-02   -0.76963E-02  5700   0.150E-01    0.563E-01
RMM:   4    -0.231657794857E+04    0.22098E-02   -0.73540E-03  5638   0.374E-02    0.220E-01
RMM:   5    -0.231657740323E+04    0.54534E-03   -0.10921E-03  4862   0.210E-02    0.117E-01
RMM:   6    -0.231657725399E+04    0.14924E-03   -0.98692E-04  4907   0.203E-02    0.955E-02
RMM:   7    -0.231657718287E+04    0.71128E-04   -0.15214E-04  3665   0.130E-02    0.227E-02
RMM:   8    -0.231657717664E+04    0.62227E-05   -0.24068E-05  2894   0.387E-03
  24 F= -.23370165E+04 E0= -.23370165E+04  d E =-.132350E-01  mag=     4.0000
       N       E                     dE             d eps       ncg     rms          rms(c)
DAV:   1    -0.231653210183E+04    0.45081E-01   -0.34090E+00  4464   0.182E+00    0.586E-01
RMM:   2    -0.231657873854E+04   -0.46637E-01   -0.48573E-01  5924   0.374E-01    0.448E-01
RMM:   3    -0.231658204187E+04   -0.33033E-02   -0.47606E-02  5638   0.120E-01    0.447E-01
RMM:   4    -0.231658063749E+04    0.14044E-02   -0.46148E-03  5464   0.298E-02    0.171E-01
RMM:   5    -0.231658029390E+04    0.34359E-03   -0.69585E-04  4605   0.170E-02    0.907E-02
RMM:   6    -0.231658019983E+04    0.94069E-04   -0.59808E-04  4885   0.164E-02    0.745E-02
RMM:   7    -0.231658015509E+04    0.44743E-04   -0.95026E-05  3163   0.104E-02    0.189E-02
RMM:   8    -0.231658015021E+04    0.48762E-05   -0.15581E-05  2857   0.355E-03
  25 F= -.23370197E+04 E0= -.23370197E+04  d E =-.164533E-01  mag=     4.0000
       N       E                     dE             d eps       ncg     rms          rms(c)
DAV:   1    -0.231649300335E+04    0.87152E-01   -0.66654E+00  4408   0.254E+00    0.800E-01
RMM:   2    -0.231658913752E+04   -0.96134E-01   -0.99142E-01  5906   0.526E-01    0.711E-01
RMM:   3    -0.231659539576E+04   -0.62582E-02   -0.99911E-02  5625   0.170E-01    0.644E-01
RMM:   4    -0.231659250505E+04    0.28907E-02   -0.92617E-03  5556   0.423E-02    0.232E-01
RMM:   5    -0.231659185520E+04    0.64985E-03   -0.14060E-03  4899   0.242E-02    0.130E-01
RMM:   6    -0.231659166435E+04    0.19086E-03   -0.11832E-03  4930   0.226E-02    0.988E-02
RMM:   7    -0.231659158578E+04    0.78565E-04   -0.18848E-04  3992   0.145E-02    0.281E-02
RMM:   8    -0.231659157577E+04    0.10010E-04   -0.30964E-05  2911   0.439E-03    0.120E-02
RMM:   9    -0.231659157222E+04    0.35477E-05   -0.12942E-05  2847   0.329E-03
  26 F= -.23370313E+04 E0= -.23370313E+04  d E =-.116159E-01  mag=     4.0000
       N       E                     dE             d eps       ncg     rms          rms(c)
DAV:   1    -0.231657720595E+04    0.14370E-01   -0.10468E+00  4560   0.101E+00    0.319E-01
RMM:   2    -0.231659227561E+04   -0.15070E-01   -0.15495E-01  5922   0.209E-01    0.294E-01
RMM:   3    -0.231659319178E+04   -0.91618E-03   -0.15507E-02  5502   0.673E-02    0.251E-01
RMM:   4    -0.231659272861E+04    0.46317E-03   -0.14697E-03  4702   0.170E-02    0.907E-02
RMM:   5    -0.231659262047E+04    0.10814E-03   -0.21367E-04  3763   0.104E-02    0.490E-02
RMM:   6    -0.231659259286E+04    0.27610E-04   -0.18280E-04  4227   0.103E-02    0.340E-02
RMM:   7    -0.231659258310E+04    0.97609E-05   -0.25650E-05  2879   0.705E-03
  27 F= -.23370324E+04 E0= -.23370324E+04  d E =-.127115E-01  mag=     4.0000
       N       E                     dE             d eps       ncg     rms          rms(c)
DAV:   1    -0.231654878172E+04    0.43811E-01   -0.37894E+00  4408   0.197E+00    0.607E-01
RMM:   2    -0.231660063977E+04   -0.51858E-01   -0.52185E-01  5881   0.395E-01    0.668E-01
RMM:   3    -0.231660140512E+04   -0.76535E-03   -0.47051E-02  5542   0.124E-01    0.476E-01
RMM:   4    -0.231659967982E+04    0.17253E-02   -0.46537E-03  5246   0.318E-02    0.150E-01
RMM:   5    -0.231659930270E+04    0.37712E-03   -0.79427E-04  4850   0.199E-02    0.803E-02
RMM:   6    -0.231659922508E+04    0.77622E-04   -0.50239E-04  4867   0.163E-02    0.459E-02
RMM:   7    -0.231659920523E+04    0.19846E-04   -0.59577E-05  3262   0.968E-03    0.169E-02
RMM:   8    -0.231659920085E+04    0.43859E-05   -0.14995E-05  2855   0.381E-03
  28 F= -.23370394E+04 E0= -.23370394E+04  d E =-.698619E-02  mag=     4.0000
       N       E                     dE             d eps       ncg     rms          rms(c)
DAV:   1    -0.231659268017E+04    0.65251E-02   -0.51615E-01  4624   0.726E-01    0.225E-01
RMM:   2    -0.231659965573E+04   -0.69756E-02   -0.70070E-02  5884   0.146E-01    0.251E-01
RMM:   3    -0.231659982189E+04   -0.16617E-03   -0.69541E-03  5315   0.483E-02    0.174E-01
RMM:   4    -0.231659958484E+04    0.23705E-03   -0.66212E-04  3953   0.121E-02    0.559E-02
RMM:   5    -0.231659953047E+04    0.54374E-04   -0.10799E-04  3440   0.822E-03    0.294E-02
RMM:   6    -0.231659951907E+04    0.11396E-04   -0.74919E-05  3718   0.761E-03    0.160E-02
RMM:   7    -0.231659951689E+04    0.21772E-05   -0.11287E-05  2847   0.539E-03
  29 F= -.23370398E+04 E0= -.23370398E+04  d E =-.744088E-02  mag=     4.0000
       N       E                     dE             d eps       ncg     rms          rms(c)
DAV:   1    -0.231656582880E+04    0.33690E-01   -0.30427E+00  4440   0.175E+00    0.507E-01
RMM:   2    -0.231660573166E+04   -0.39903E-01   -0.40490E-01  5889   0.347E-01    0.532E-01
RMM:   3    -0.231660663668E+04   -0.90502E-03   -0.34395E-02  5540   0.105E-01    0.405E-01
RMM:   4    -0.231660543373E+04    0.12030E-02   -0.34912E-03  5207   0.271E-02    0.140E-01
RMM:   5    -0.231660514224E+04    0.29149E-03   -0.63029E-04  4662   0.169E-02    0.743E-02
RMM:   6    -0.231660507917E+04    0.63062E-04   -0.40325E-04  4747   0.144E-02    0.434E-02
RMM:   7    -0.231660506215E+04    0.17020E-04   -0.48880E-05  3072   0.895E-03    0.164E-02
RMM:   8    -0.231660505830E+04    0.38488E-05   -0.12672E-05  2850   0.358E-03
  30 F= -.23370459E+04 E0= -.23370459E+04  d E =-.608516E-02  mag=     4.0000
       N       E                     dE             d eps       ncg     rms          rms(c)
DAV:   1    -0.231657978284E+04    0.25279E-01   -0.20115E+00  4452   0.142E+00    0.413E-01
RMM:   2    -0.231660651527E+04   -0.26732E-01   -0.27100E-01  5886   0.282E-01    0.443E-01
RMM:   3    -0.231660678941E+04   -0.27414E-03   -0.19607E-02  5512   0.824E-02    0.337E-01
RMM:   4    -0.231660594773E+04    0.84169E-03   -0.22068E-03  5057   0.220E-02    0.112E-01
RMM:   5    -0.231660574770E+04    0.20003E-03   -0.41668E-04  4412   0.140E-02    0.592E-02
RMM:   6    -0.231660570528E+04    0.42414E-04   -0.24705E-04  4466   0.121E-02    0.301E-02
RMM:   7    -0.231660569613E+04    0.91560E-05   -0.31801E-05  2950   0.781E-03
  31 F= -.23370470E+04 E0= -.23370470E+04  d E =-.717207E-02  mag=     4.0000
       N       E                     dE             d eps       ncg     rms          rms(c)
DAV:   1    -0.231658305041E+04    0.22655E-01   -0.25977E+00  4440   0.162E+00    0.451E-01
RMM:   2    -0.231660869406E+04   -0.25644E-01   -0.27193E-01  5824   0.311E-01    0.252E-01
RMM:   3    -0.231660969586E+04   -0.10018E-02   -0.23732E-02  5328   0.922E-02    0.181E-01
RMM:   4    -0.231660966289E+04    0.32975E-04   -0.23911E-03  5138   0.219E-02    0.174E-01
RMM:   5    -0.231660940173E+04    0.26116E-03   -0.55255E-04  4561   0.157E-02    0.856E-02
RMM:   6    -0.231660932775E+04    0.73979E-04   -0.33566E-04  4617   0.129E-02    0.443E-02
RMM:   7    -0.231660931260E+04    0.15148E-04   -0.53805E-05  2961   0.929E-03    0.120E-02
RMM:   8    -0.231660931178E+04    0.82236E-06   -0.11995E-05  2869   0.283E-03
  32 F= -.23370511E+04 E0= -.23370511E+04  d E =-.410751E-02  mag=     4.0000
       N       E                     dE             d eps       ncg     rms          rms(c)
DAV:   1    -0.231660589208E+04    0.34205E-02   -0.34643E-01  4656   0.591E-01    0.165E-01
RMM:   2    -0.231660936875E+04   -0.34767E-02   -0.36795E-02  5811   0.114E-01    0.916E-02
RMM:   3    -0.231660944871E+04   -0.79964E-04   -0.27343E-03  4761   0.348E-02    0.686E-02
RMM:   4    -0.231660943803E+04    0.10683E-04   -0.29235E-04  3196   0.856E-03    0.635E-02
RMM:   5    -0.231660939978E+04    0.38244E-04   -0.73510E-05  2958   0.688E-03    0.297E-02
RMM:   6    -0.231660939132E+04    0.84664E-05   -0.47947E-05  3289   0.624E-03
  33 F= -.23370514E+04 E0= -.23370514E+04  d E =-.436894E-02  mag=     4.0000
       N       E                     dE             d eps       ncg     rms          rms(c)
DAV:   1    -0.231659848579E+04    0.10914E-01   -0.18472E+00  4440   0.137E+00    0.383E-01
RMM:   2    -0.231661322006E+04   -0.14734E-01   -0.15800E-01  5711   0.255E-01    0.220E-01
RMM:   3    -0.231661353656E+04   -0.31650E-03   -0.10938E-02  5305   0.759E-02    0.288E-01
RMM:   4    -0.231661302455E+04    0.51202E-03   -0.13574E-03  5035   0.194E-02    0.110E-01
RMM:   5    -0.231661283686E+04    0.18769E-03   -0.36830E-04  4416   0.138E-02    0.522E-02
RMM:   6    -0.231661280074E+04    0.36118E-04   -0.17637E-04  4305   0.117E-02    0.144E-02
RMM:   7    -0.231661279821E+04    0.25279E-05   -0.23906E-05  2923   0.651E-03
  34 F= -.23370550E+04 E0= -.23370550E+04  d E =-.366283E-02  mag=     4.0000
       N       E                     dE             d eps       ncg     rms          rms(c)
DAV:   1    -0.231661138748E+04    0.14133E-02   -0.18269E-01  4592   0.431E-01    0.122E-01
RMM:   2    -0.231661283635E+04   -0.14489E-02   -0.15576E-02  5782   0.814E-02    0.652E-02
RMM:   3    -0.231661286919E+04   -0.32837E-04   -0.11733E-03  4254   0.259E-02    0.783E-02
RMM:   4    -0.231661283702E+04    0.32164E-04   -0.13423E-04  2958   0.687E-03    0.376E-02
RMM:   5    -0.231661281515E+04    0.21870E-04   -0.35897E-05  2993   0.514E-03    0.165E-02
RMM:   6    -0.231661281115E+04    0.40012E-05   -0.18392E-05  2895   0.502E-03
  35 F= -.23370551E+04 E0= -.23370551E+04  d E =-.375736E-02  mag=     4.0000
       N       E                     dE             d eps       ncg     rms          rms(c)
DAV:   1    -0.231660063680E+04    0.12178E-01   -0.18894E+00  4420   0.140E+00    0.348E-01
RMM:   2    -0.231661607286E+04   -0.15436E-01   -0.16232E-01  5729   0.256E-01    0.187E-01
RMM:   3    -0.231661656177E+04   -0.48892E-03   -0.12227E-02  5283   0.750E-02    0.211E-01
RMM:   4    -0.231661635681E+04    0.20496E-03   -0.12950E-03  4779   0.177E-02    0.111E-01
RMM:   5    -0.231661618724E+04    0.16957E-03   -0.28942E-04  4347   0.130E-02    0.487E-02
RMM:   6    -0.231661616786E+04    0.19379E-04   -0.13840E-04  4199   0.106E-02    0.208E-02
RMM:   7    -0.231661616493E+04    0.29277E-05   -0.18424E-05  2897   0.629E-03
  36 F= -.23370587E+04 E0= -.23370587E+04  d E =-.353912E-02  mag=     4.0000
       N       E                     dE             d eps       ncg     rms          rms(c)
DAV:   1    -0.231660677876E+04    0.93891E-02   -0.12216E+00  4432   0.113E+00    0.280E-01
RMM:   2    -0.231661677345E+04   -0.99947E-02   -0.10512E-01  5784   0.207E-01    0.150E-01
RMM:   3    -0.231661709186E+04   -0.31841E-03   -0.79028E-03  5288   0.604E-02    0.167E-01
RMM:   4    -0.231661696486E+04    0.12700E-03   -0.83650E-04  4122   0.143E-02    0.900E-02
RMM:   5    -0.231661685191E+04    0.11295E-03   -0.19013E-04  4129   0.110E-02    0.391E-02
RMM:   6    -0.231661683858E+04    0.13331E-04   -0.92529E-05  3950   0.917E-03    0.173E-02
RMM:   7    -0.231661683648E+04    0.20993E-05   -0.14567E-05  2870   0.581E-03
  37 F= -.23370595E+04 E0= -.23370595E+04  d E =-.436216E-02  mag=     4.0000
       N       E                     dE             d eps       ncg     rms          rms(c)
DAV:   1    -0.231660759475E+04    0.92438E-02   -0.12885E+00  4420   0.115E+00    0.292E-01
RMM:   2    -0.231661966766E+04   -0.12073E-01   -0.12616E-01  5792   0.218E-01    0.148E-01
RMM:   3    -0.231662010090E+04   -0.43324E-03   -0.98803E-03  5316   0.649E-02    0.123E-01
RMM:   4    -0.231662010808E+04   -0.71714E-05   -0.10523E-03  4267   0.148E-02    0.110E-01
RMM:   5    -0.231661997595E+04    0.13212E-03   -0.23211E-04  4076   0.111E-02    0.454E-02
RMM:   6    -0.231661995882E+04    0.17136E-04   -0.11173E-04  4043   0.887E-03    0.224E-02
RMM:   7    -0.231661995537E+04    0.34424E-05   -0.17035E-05  2883   0.620E-03
  38 F= -.23370628E+04 E0= -.23370628E+04  d E =-.330914E-02  mag=     4.0000
       N       E                     dE             d eps       ncg     rms          rms(c)
DAV:   1    -0.231660029092E+04    0.19668E-01   -0.21817E+00  4408   0.150E+00    0.380E-01
RMM:   2    -0.231662070101E+04   -0.20410E-01   -0.21328E-01  5802   0.283E-01    0.194E-01
RMM:   3    -0.231662145331E+04   -0.75229E-03   -0.16803E-02  5370   0.840E-02    0.160E-01
RMM:   4    -0.231662146255E+04   -0.92438E-05   -0.17824E-03  4893   0.191E-02    0.143E-01
RMM:   5    -0.231662123624E+04    0.22631E-03   -0.39580E-04  4401   0.137E-02    0.599E-02
RMM:   6    -0.231662120118E+04    0.35060E-04   -0.19010E-04  4443   0.111E-02    0.275E-02
RMM:   7    -0.231662119479E+04    0.63928E-05   -0.25944E-05  2924   0.710E-03
  39 F= -.23370643E+04 E0= -.23370643E+04  d E =-.479950E-02  mag=     4.0000
       N       E                     dE             d eps       ncg     rms          rms(c)
DAV:   1    -0.231660636278E+04    0.14838E-01   -0.17326E+00  4440   0.132E+00    0.351E-01
RMM:   2    -0.231662386842E+04   -0.17506E-01   -0.18191E-01  5822   0.255E-01    0.202E-01
RMM:   3    -0.231662472061E+04   -0.85219E-03   -0.14121E-02  5428   0.742E-02    0.249E-01
RMM:   4    -0.231662436521E+04    0.35541E-03   -0.15892E-03  4653   0.180E-02    0.100E-01
RMM:   5    -0.231662421088E+04    0.15433E-03   -0.30684E-04  4258   0.123E-02    0.488E-02
RMM:   6    -0.231662419142E+04    0.19452E-04   -0.13661E-04  4103   0.105E-02    0.228E-02
RMM:   7    -0.231662418929E+04    0.21325E-05   -0.19091E-05  2870   0.623E-03
  40 F= -.23370674E+04 E0= -.23370674E+04  d E =-.309006E-02  mag=     4.0000
       N       E                     dE             d eps       ncg     rms          rms(c)
DAV:   1    -0.231661382701E+04    0.10364E-01   -0.10634E+00  4452   0.103E+00    0.276E-01
RMM:   2    -0.231662458049E+04   -0.10753E-01   -0.11175E-01  5837   0.200E-01    0.159E-01
RMM:   3    -0.231662509770E+04   -0.51721E-03   -0.86006E-03  5365   0.576E-02    0.196E-01
RMM:   4    -0.231662487806E+04    0.21963E-03   -0.97340E-04  3987   0.142E-02    0.785E-02
RMM:   5    -0.231662478208E+04    0.95988E-04   -0.19190E-04  4053   0.102E-02    0.380E-02
RMM:   6    -0.231662477077E+04    0.11306E-04   -0.82850E-05  3757   0.874E-03    0.191E-02
RMM:   7    -0.231662476933E+04    0.14350E-05   -0.13900E-05  2845   0.557E-03
  41 F= -.23370680E+04 E0= -.23370680E+04  d E =-.374818E-02  mag=     4.0000
       N       E                     dE             d eps       ncg     rms          rms(c)
DAV:   1    -0.231661306583E+04    0.11705E-01   -0.15224E+00  4440   0.121E+00    0.336E-01
RMM:   2    -0.231662754889E+04   -0.14483E-01   -0.14848E-01  5824   0.234E-01    0.266E-01
RMM:   3    -0.231662815123E+04   -0.60234E-03   -0.10749E-02  5447   0.675E-02    0.322E-01
RMM:   4    -0.231662740391E+04    0.74732E-03   -0.13539E-03  4944   0.185E-02    0.862E-02
RMM:   5    -0.231662728540E+04    0.11851E-03   -0.34822E-04  4238   0.124E-02    0.465E-02
RMM:   6    -0.231662726700E+04    0.18397E-04   -0.12573E-04  4062   0.103E-02    0.178E-02
RMM:   7    -0.231662726674E+04    0.25923E-06   -0.16373E-05  2878   0.575E-03
  42 F= -.23370705E+04 E0= -.23370705E+04  d E =-.243509E-02  mag=     4.0000
       N       E                     dE             d eps       ncg     rms          rms(c)
DAV:   1    -0.231661550658E+04    0.11760E-01   -0.12570E+00  4440   0.110E+00    0.306E-01
RMM:   2    -0.231662745376E+04   -0.11947E-01   -0.12246E-01  5837   0.212E-01    0.242E-01
RMM:   3    -0.231662795205E+04   -0.49829E-03   -0.88322E-03  5406   0.609E-02    0.293E-01
RMM:   4    -0.231662733364E+04    0.61840E-03   -0.11203E-03  4739   0.168E-02    0.785E-02
RMM:   5    -0.231662723463E+04    0.99014E-04   -0.28953E-04  4139   0.114E-02    0.422E-02
RMM:   6    -0.231662721913E+04    0.15499E-04   -0.10334E-04  3910   0.958E-03    0.161E-02
RMM:   7    -0.231662721893E+04    0.19901E-06   -0.14960E-05  2872   0.557E-03
  43 F= -.23370704E+04 E0= -.23370704E+04  d E =-.233395E-02  mag=     4.0000
       N       E                     dE             d eps       ncg     rms          rms(c)
DAV:   1    -0.231662459454E+04    0.26246E-02   -0.31580E-01  4464   0.550E-01    0.152E-01
RMM:   2    -0.231662757668E+04   -0.29821E-02   -0.30515E-02  5824   0.107E-01    0.125E-01
RMM:   3    -0.231662769657E+04   -0.11989E-03   -0.23026E-03  4668   0.322E-02    0.144E-01
RMM:   4    -0.231662754796E+04    0.14861E-03   -0.27918E-04  3170   0.882E-03    0.397E-02
RMM:   5    -0.231662752116E+04    0.26799E-04   -0.71979E-05  3140   0.645E-03    0.204E-02
RMM:   6    -0.231662751874E+04    0.24220E-05   -0.27701E-05  2920   0.593E-03
  44 F= -.23370707E+04 E0= -.23370707E+04  d E =-.266009E-02  mag=     4.0000
       N       E                     dE             d eps       ncg     rms          rms(c)
DAV:   1    -0.231661619742E+04    0.11324E-01   -0.16880E+00  4408   0.127E+00    0.344E-01
RMM:   2    -0.231663077733E+04   -0.14580E-01   -0.14755E-01  5853   0.242E-01    0.316E-01
RMM:   3    -0.231663095236E+04   -0.17503E-03   -0.98335E-03  5494   0.742E-02    0.328E-01
RMM:   4    -0.231663013980E+04    0.81257E-03   -0.12658E-03  5038   0.194E-02    0.874E-02
RMM:   5    -0.231663001052E+04    0.12928E-03   -0.36219E-04  4283   0.131E-02    0.489E-02
RMM:   6    -0.231662998738E+04    0.23134E-04   -0.15085E-04  4138   0.111E-02    0.177E-02
RMM:   7    -0.231662998606E+04    0.13191E-05   -0.22116E-05  2897   0.617E-03
  45 F= -.23370732E+04 E0= -.23370732E+04  d E =-.247665E-02  mag=     4.0000
       N       E                     dE             d eps       ncg     rms          rms(c)
DAV:   1    -0.231662644421E+04    0.35432E-02   -0.46774E-01  4432   0.670E-01    0.183E-01
RMM:   2    -0.231663051130E+04   -0.40671E-02   -0.41125E-02  5838   0.128E-01    0.168E-01
RMM:   3    -0.231663056632E+04   -0.55029E-04   -0.27281E-03  5030   0.358E-02    0.175E-01
RMM:   4    -0.231663033497E+04    0.23136E-03   -0.35367E-04  3445   0.104E-02    0.464E-02
RMM:   5    -0.231663029908E+04    0.35888E-04   -0.10132E-04  3499   0.754E-03    0.257E-02
RMM:   6    -0.231663029309E+04    0.59840E-05   -0.41161E-05  3096   0.686E-03
  46 F= -.23370735E+04 E0= -.23370735E+04  d E =-.278935E-02  mag=     4.0000
       N       E                     dE             d eps       ncg     rms          rms(c)
DAV:   1    -0.231662005592E+04    0.10243E-01   -0.15784E+00  4440   0.127E+00    0.344E-01
RMM:   2    -0.231663274871E+04   -0.12693E-01   -0.13108E-01  5779   0.236E-01    0.242E-01
RMM:   3    -0.231663325081E+04   -0.50210E-03   -0.93488E-03  5429   0.697E-02    0.318E-01
RMM:   4    -0.231663250435E+04    0.74647E-03   -0.12034E-03  5022   0.189E-02    0.848E-02
RMM:   5    -0.231663239404E+04    0.11031E-03   -0.34155E-04  4333   0.130E-02    0.428E-02
RMM:   6    -0.231663238009E+04    0.13946E-04   -0.11781E-04  4055   0.105E-02    0.171E-02
RMM:   7    -0.231663237927E+04    0.82306E-06   -0.17140E-05  2886   0.572E-03
  47 F= -.23370758E+04 E0= -.23370758E+04  d E =-.228934E-02  mag=     4.0000
       N       E                     dE             d eps       ncg     rms          rms(c)
DAV:   1    -0.231662924664E+04    0.31335E-02   -0.38485E-01  4496   0.626E-01    0.171E-01
RMM:   2    -0.231663234088E+04   -0.30942E-02   -0.31961E-02  5794   0.117E-01    0.119E-01
RMM:   3    -0.231663247212E+04   -0.13123E-03   -0.23027E-03  4965   0.354E-02    0.157E-01
RMM:   4    -0.231663228972E+04    0.18239E-03   -0.29325E-04  3348   0.972E-03    0.423E-02
RMM:   5    -0.231663226165E+04    0.28074E-04   -0.85578E-05  3386   0.723E-03    0.213E-02
RMM:   6    -0.231663225800E+04    0.36474E-05   -0.30951E-05  3024   0.642E-03
  48 F= -.23370758E+04 E0= -.23370758E+04  d E =-.226827E-02  mag=     4.0000
       N       E                     dE             d eps       ncg     rms          rms(c)
DAV:   1    -0.231662496339E+04    0.72983E-02   -0.98388E-01  4408   0.990E-01    0.250E-01
RMM:   2    -0.231663356039E+04   -0.85970E-02   -0.88692E-02  5801   0.185E-01    0.173E-01
RMM:   3    -0.231663389069E+04   -0.33030E-03   -0.63607E-03  5377   0.563E-02    0.216E-01
RMM:   4    -0.231663357453E+04    0.31616E-03   -0.74884E-04  3995   0.139E-02    0.686E-02
RMM:   5    -0.231663350873E+04    0.65800E-04   -0.17777E-04  3877   0.959E-03    0.353E-02
RMM:   6    -0.231663350077E+04    0.79587E-05   -0.78559E-05  3671   0.840E-03
  49 F= -.23370771E+04 E0= -.23370771E+04  d E =-.135282E-02  mag=     4.0000
       N       E                     dE             d eps       ncg     rms          rms(c)
DAV:   1    -0.231662574746E+04    0.77613E-02   -0.91513E-01  4408   0.955E-01    0.242E-01
RMM:   2    -0.231663375377E+04   -0.80063E-02   -0.82659E-02  5877   0.179E-01    0.166E-01
RMM:   3    -0.231663406239E+04   -0.30862E-03   -0.59639E-03  5467   0.569E-02    0.209E-01
RMM:   4    -0.231663376927E+04    0.29312E-03   -0.70085E-04  3903   0.138E-02    0.665E-02
RMM:   5    -0.231663370831E+04    0.60954E-04   -0.16053E-04  3849   0.940E-03    0.341E-02
RMM:   6    -0.231663370133E+04    0.69864E-05   -0.72674E-05  3611   0.820E-03
  50 F= -.23370774E+04 E0= -.23370774E+04  d E =-.166044E-02  mag=     4.0000
       N       E                     dE             d eps       ncg     rms          rms(c)
DAV:   1    -0.231663240614E+04    0.13022E-02   -0.36518E-01  4496   0.614E-01    0.193E-01
RMM:   2    -0.231663531840E+04   -0.29123E-02   -0.31013E-02  5848   0.119E-01    0.108E-01
RMM:   3    -0.231663544011E+04   -0.12170E-03   -0.21487E-03  5027   0.433E-02    0.158E-01
RMM:   4    -0.231663524784E+04    0.19227E-03   -0.30220E-04  3627   0.111E-02    0.482E-02
RMM:   5    -0.231663520903E+04    0.38809E-04   -0.11978E-04  4010   0.906E-03    0.213E-02
RMM:   6    -0.231663520411E+04    0.49211E-05   -0.30253E-05  2983   0.701E-03
  51 F= -.23370789E+04 E0= -.23370789E+04  d E =-.145083E-02  mag=     4.0000
       N       E                     dE             d eps       ncg     rms          rms(c)
DAV:   1    -0.231663494252E+04    0.26651E-03   -0.43188E-02  4880   0.212E-01    0.669E-02
RMM:   2    -0.231663529510E+04   -0.35258E-03   -0.37451E-03  6025   0.426E-02    0.370E-02
RMM:   3    -0.231663530784E+04   -0.12741E-04   -0.25534E-04  3426   0.141E-02    0.534E-02
RMM:   4    -0.231663528635E+04    0.21490E-04   -0.36172E-05  2865   0.465E-03    0.172E-02
RMM:   5    -0.231663528096E+04    0.53902E-05   -0.15696E-05  2865   0.355E-03
  52 F= -.23370789E+04 E0= -.23370789E+04  d E =-.150986E-02  mag=     4.0000
       N       E                     dE             d eps       ncg     rms          rms(c)
DAV:   1    -0.231663438675E+04    0.89961E-03   -0.23731E-01  4432   0.481E-01    0.133E-01
RMM:   2    -0.231663629212E+04   -0.19054E-02   -0.20096E-02  5785   0.907E-02    0.739E-02
RMM:   3    -0.231663635605E+04   -0.63932E-04   -0.15804E-03  4402   0.308E-02    0.837E-02
RMM:   4    -0.231663631833E+04    0.37723E-04   -0.18021E-04  2998   0.763E-03    0.421E-02
RMM:   5    -0.231663629261E+04    0.25711E-04   -0.56787E-05  3183   0.636E-03    0.189E-02
RMM:   6    -0.231663629033E+04    0.22820E-05   -0.21034E-05  2895   0.560E-03
  53 F= -.23370799E+04 E0= -.23370799E+04  d E =-.101757E-02  mag=     4.0000
       N       E                     dE             d eps       ncg     rms          rms(c)
DAV:   1    -0.231663430040E+04    0.19922E-02   -0.27455E-01  4420   0.517E-01    0.144E-01
RMM:   2    -0.231663651978E+04   -0.22194E-02   -0.23370E-02  5822   0.978E-02    0.830E-02
RMM:   3    -0.231663660688E+04   -0.87095E-04   -0.18610E-03  4528   0.331E-02    0.101E-01
RMM:   4    -0.231663654473E+04    0.62146E-04   -0.21093E-04  3065   0.820E-03    0.435E-02
RMM:   5    -0.231663651562E+04    0.29110E-04   -0.66039E-05  3330   0.671E-03    0.199E-02
RMM:   6    -0.231663651203E+04    0.35910E-05   -0.23864E-05  2923   0.593E-03
  54 F= -.23370802E+04 E0= -.23370802E+04  d E =-.124900E-02  mag=     4.0000
       N       E                     dE             d eps       ncg     rms          rms(c)
DAV:   1    -0.231663531906E+04    0.11966E-02   -0.26150E-01  4420   0.518E-01    0.136E-01
RMM:   2    -0.231663719727E+04   -0.18782E-02   -0.19966E-02  5798   0.948E-02    0.674E-02
RMM:   3    -0.231663723841E+04   -0.41145E-04   -0.16508E-03  4620   0.345E-02    0.515E-02
RMM:   4    -0.231663724823E+04   -0.98186E-05   -0.17805E-04  3128   0.811E-03    0.620E-02
RMM:   5    -0.231663721060E+04    0.37632E-04   -0.60707E-05  3008   0.684E-03    0.198E-02
RMM:   6    -0.231663720886E+04    0.17390E-05   -0.24705E-05  2906   0.566E-03
  55 F= -.23370810E+04 E0= -.23370810E+04  d E =-.855032E-03  mag=     4.0000
       N       E                     dE             d eps       ncg     rms          rms(c)
DAV:   1    -0.231663580227E+04    0.14083E-02   -0.19918E-01  4420   0.453E-01    0.119E-01
RMM:   2    -0.231663723703E+04   -0.14348E-02   -0.15258E-02  5885   0.832E-02    0.585E-02
RMM:   3    -0.231663726693E+04   -0.29905E-04   -0.12496E-03  4421   0.291E-02    0.422E-02
RMM:   4    -0.231663727696E+04   -0.10025E-04   -0.13785E-04  3020   0.741E-03    0.559E-02
RMM:   5    -0.231663724717E+04    0.29790E-04   -0.48087E-05  2916   0.603E-03    0.180E-02
RMM:   6    -0.231663724563E+04    0.15419E-05   -0.18699E-05  2866   0.505E-03
  56 F= -.23370812E+04 E0= -.23370812E+04  d E =-.103034E-02  mag=     4.0000
       N       E                     dE             d eps       ncg     rms          rms(c)
DAV:   1    -0.231663568978E+04    0.15574E-02   -0.28271E-01  4452   0.548E-01    0.154E-01
RMM:   2    -0.231663789076E+04   -0.22010E-02   -0.23329E-02  5805   0.100E-01    0.883E-02
RMM:   3    -0.231663805314E+04   -0.16238E-03   -0.23312E-03  4780   0.385E-02    0.120E-01
RMM:   4    -0.231663795419E+04    0.98955E-04   -0.22911E-04  3183   0.898E-03    0.435E-02
RMM:   5    -0.231663792755E+04    0.26641E-04   -0.73599E-05  3537   0.739E-03    0.179E-02
RMM:   6    -0.231663792508E+04    0.24653E-05   -0.23610E-05  2905   0.608E-03
  57 F= -.23370821E+04 E0= -.23370821E+04  d E =-.921000E-03  mag=     4.0000
       N       E                     dE             d eps       ncg     rms          rms(c)
DAV:   1    -0.231663703097E+04    0.89657E-03   -0.10481E-01  4576   0.334E-01    0.944E-02
RMM:   2    -0.231663785731E+04   -0.82634E-03   -0.87423E-03  5964   0.623E-02    0.550E-02
RMM:   3    -0.231663791788E+04   -0.60573E-04   -0.86787E-04  3925   0.227E-02    0.751E-02
RMM:   4    -0.231663787836E+04    0.39520E-04   -0.86344E-05  2916   0.630E-03    0.266E-02
RMM:   5    -0.231663786820E+04    0.10161E-04   -0.28996E-05  2900   0.477E-03    0.111E-02
RMM:   6    -0.231663786713E+04    0.10755E-05   -0.10250E-05  2847   0.422E-03
  58 F= -.23370822E+04 E0= -.23370822E+04  d E =-.101054E-02  mag=     4.0000
       N       E                     dE             d eps       ncg     rms          rms(c)
DAV:   1    -0.231663591587E+04    0.19523E-02   -0.31635E-01  4440   0.570E-01    0.148E-01
RMM:   2    -0.231663841083E+04   -0.24950E-02   -0.26390E-02  5758   0.102E-01    0.781E-02
RMM:   3    -0.231663855156E+04   -0.14073E-03   -0.25384E-03  4693   0.381E-02    0.815E-02
RMM:   4    -0.231663852553E+04    0.26027E-04   -0.24297E-04  3117   0.831E-03    0.522E-02
RMM:   5    -0.231663849496E+04    0.30570E-04   -0.61806E-05  3140   0.684E-03    0.209E-02
RMM:   6    -0.231663849251E+04    0.24546E-05   -0.29451E-05  2955   0.600E-03
  59 F= -.23370830E+04 E0= -.23370830E+04  d E =-.836052E-03  mag=     4.0000
       N       E                     dE             d eps       ncg     rms          rms(c)
DAV:   1    -0.231663671529E+04    0.17797E-02   -0.21200E-01  4452   0.466E-01    0.122E-01
RMM:   2    -0.231663838987E+04   -0.16746E-02   -0.17741E-02  5848   0.849E-02    0.630E-02
RMM:   3    -0.231663848223E+04   -0.92360E-04   -0.17045E-03  4436   0.313E-02    0.619E-02
RMM:   4    -0.231663847139E+04    0.10842E-04   -0.16247E-04  2971   0.718E-03    0.450E-02
RMM:   5    -0.231663844954E+04    0.21852E-04   -0.42223E-05  2930   0.569E-03    0.177E-02
RMM:   6    -0.231663844756E+04    0.19764E-05   -0.20389E-05  2886   0.508E-03
  60 F= -.23370832E+04 E0= -.23370832E+04  d E =-.964295E-03  mag=     4.0000
       N       E                     dE             d eps       ncg     rms          rms(c)
DAV:   1    -0.231663632455E+04    0.21250E-02   -0.40138E-01  4440   0.636E-01    0.170E-01
RMM:   2    -0.231663919377E+04   -0.28692E-02   -0.30699E-02  5787   0.114E-01    0.867E-02
RMM:   3    -0.231663924860E+04   -0.54827E-04   -0.22528E-03  4835   0.418E-02    0.887E-02
RMM:   4    -0.231663921570E+04    0.32892E-04   -0.24762E-04  3254   0.930E-03    0.590E-02
RMM:   5    -0.231663917307E+04    0.42632E-04   -0.80718E-05  3428   0.776E-03    0.233E-02
RMM:   6    -0.231663916908E+04    0.39897E-05   -0.34937E-05  3040   0.663E-03
  61 F= -.23370840E+04 E0= -.23370840E+04  d E =-.803153E-03  mag=     4.0000
       N       E                     dE             d eps       ncg     rms          rms(c)
DAV:   1    -0.231663836480E+04    0.80827E-03   -0.11147E-01  4560   0.335E-01    0.906E-02
RMM:   2    -0.231663916349E+04   -0.79869E-03   -0.85620E-03  6042   0.620E-02    0.445E-02
RMM:   3    -0.231663918027E+04   -0.16779E-04   -0.67606E-04  3831   0.208E-02    0.388E-02
RMM:   4    -0.231663917887E+04    0.13954E-05   -0.72045E-05  2890   0.567E-03
  62 F= -.23370840E+04 E0= -.23370840E+04  d E =-.856437E-03  mag=     4.0000
       N       E                     dE             d eps       ncg     rms          rms(c)
DAV:   1    -0.231663664987E+04    0.25304E-02   -0.44693E-01  4440   0.663E-01    0.173E-01
RMM:   2    -0.231663988039E+04   -0.32305E-02   -0.34118E-02  5745   0.119E-01    0.100E-01
RMM:   3    -0.231664000560E+04   -0.12521E-03   -0.29019E-03  4828   0.435E-02    0.116E-01
RMM:   4    -0.231663992363E+04    0.81967E-04   -0.31276E-04  3313   0.990E-03    0.558E-02
RMM:   5    -0.231663987894E+04    0.44696E-04   -0.10241E-04  3726   0.811E-03    0.233E-02
RMM:   6    -0.231663987604E+04    0.28984E-05   -0.34279E-05  2972   0.673E-03
  63 F= -.23370848E+04 E0= -.23370848E+04  d E =-.749930E-03  mag=     4.0000
       N       E                     dE             d eps       ncg     rms          rms(c)
DAV:   1    -0.231663871744E+04    0.11615E-02   -0.15913E-01  4440   0.396E-01    0.105E-01
RMM:   2    -0.231663987911E+04   -0.11617E-02   -0.12316E-02  5983   0.728E-02    0.546E-02
RMM:   3    -0.231663991671E+04   -0.37605E-04   -0.10124E-03  4005   0.251E-02    0.572E-02
RMM:   4    -0.231663990232E+04    0.14394E-04   -0.10764E-04  2929   0.654E-03    0.342E-02
RMM:   5    -0.231663988681E+04    0.15512E-04   -0.33715E-05  2918   0.491E-03    0.151E-02
RMM:   6    -0.231663988541E+04    0.13952E-05   -0.13614E-05  2876   0.443E-03
  64 F= -.23370848E+04 E0= -.23370848E+04  d E =-.791316E-03  mag=     4.0000
       N       E                     dE             d eps       ncg     rms          rms(c)
DAV:   1    -0.231663693842E+04    0.29484E-02   -0.42822E-01  4440   0.655E-01    0.168E-01
RMM:   2    -0.231664039123E+04   -0.34528E-02   -0.36425E-02  5792   0.120E-01    0.833E-02
RMM:   3    -0.231664047537E+04   -0.84142E-04   -0.29222E-03  4799   0.419E-02    0.502E-02
RMM:   4    -0.231664045737E+04    0.18006E-04   -0.29663E-04  3854   0.100E-02    0.333E-02
RMM:   5    -0.231664045914E+04   -0.17692E-05   -0.63475E-05  3012   0.771E-03
  65 F= -.23370855E+04 E0= -.23370855E+04  d E =-.692105E-03  mag=     4.0000
       N       E                     dE             d eps       ncg     rms          rms(c)
DAV:   1    -0.231663934798E+04    0.11094E-02   -0.12670E-01  4512   0.356E-01    0.935E-02
RMM:   2    -0.231664037888E+04   -0.10309E-02   -0.10846E-02  5878   0.663E-02    0.609E-02
RMM:   3    -0.231664044713E+04   -0.68242E-04   -0.10125E-03  4008   0.246E-02    0.778E-02
RMM:   4    -0.231664040633E+04    0.40800E-04   -0.96250E-05  2908   0.633E-03    0.300E-02
RMM:   5    -0.231664039463E+04    0.11701E-04   -0.28592E-05  2906   0.444E-03    0.129E-02
RMM:   6    -0.231664039398E+04    0.64852E-06   -0.11425E-05  2847   0.412E-03
  66 F= -.23370855E+04 E0= -.23370855E+04  d E =-.691974E-03  mag=     4.0000
       N       E                     dE             d eps       ncg     rms          rms(c)
DAV:   1    -0.231663680767E+04    0.35870E-02   -0.46254E-01  4440   0.691E-01    0.183E-01
RMM:   2    -0.231664081220E+04   -0.40045E-02   -0.42447E-02  5729   0.127E-01    0.882E-02
RMM:   3    -0.231664097195E+04   -0.15975E-03   -0.38644E-03  4910   0.451E-02    0.628E-02
RMM:   4    -0.231664100612E+04   -0.34170E-04   -0.38671E-04  3560   0.101E-02    0.833E-02
RMM:   5    -0.231664094006E+04    0.66059E-04   -0.91852E-05  3122   0.796E-03    0.270E-02
RMM:   6    -0.231664093778E+04    0.22733E-05   -0.47509E-05  3237   0.632E-03
  67 F= -.23370862E+04 E0= -.23370862E+04  d E =-.681332E-03  mag=     4.0000
       N       E                     dE             d eps       ncg     rms          rms(c)
DAV:   1    -0.231664045729E+04    0.48277E-03   -0.49874E-02  4672   0.227E-01    0.613E-02
RMM:   2    -0.231664089548E+04   -0.43819E-03   -0.46527E-03  6107   0.446E-02    0.294E-02
RMM:   3    -0.231664091331E+04   -0.17833E-04   -0.41699E-04  3235   0.139E-02    0.201E-02
RMM:   4    -0.231664091729E+04   -0.39756E-05   -0.41908E-05  2877   0.423E-03
  68 F= -.23370862E+04 E0= -.23370862E+04  d E =-.706174E-03  mag=     4.0000
       N       E                     dE             d eps       ncg     rms          rms(c)
DAV:   1    -0.231663824809E+04    0.26652E-02   -0.40126E-01  4440   0.646E-01    0.170E-01
RMM:   2    -0.231664148345E+04   -0.32354E-02   -0.34201E-02  5763   0.118E-01    0.959E-02
RMM:   3    -0.231664161088E+04   -0.12743E-03   -0.29140E-03  4914   0.396E-02    0.103E-01
RMM:   4    -0.231664155606E+04    0.54818E-04   -0.31259E-04  3249   0.946E-03    0.549E-02
RMM:   5    -0.231664151639E+04    0.39677E-04   -0.89205E-05  3435   0.797E-03    0.260E-02
RMM:   6    -0.231664151168E+04    0.47062E-05   -0.43798E-05  3193   0.674E-03
  69 F= -.23370869E+04 E0= -.23370869E+04  d E =-.675602E-03  mag=     4.0000
       N       E                     dE             d eps       ncg     rms          rms(c)
DAV:   1    -0.231664124817E+04    0.26822E-03   -0.28844E-02  4816   0.174E-01    0.473E-02
RMM:   2    -0.231664148619E+04   -0.23802E-03   -0.25355E-03  5999   0.342E-02    0.249E-02
RMM:   3    -0.231664149659E+04   -0.10402E-04   -0.21472E-04  3075   0.111E-02    0.291E-02
RMM:   4    -0.231664149201E+04    0.45778E-05   -0.24575E-05  2864   0.372E-03
  70 F= -.23370869E+04 E0= -.23370869E+04  d E =-.677854E-03  mag=     4.0000
       N       E                     dE             d eps       ncg     rms          rms(c)
DAV:   1    -0.231663899215E+04    0.25044E-02   -0.37614E-01  4440   0.621E-01    0.172E-01
RMM:   2    -0.231664217044E+04   -0.31783E-02   -0.32703E-02  5767   0.114E-01    0.153E-01
RMM:   3    -0.231664226787E+04   -0.97430E-04   -0.28969E-03  4957   0.379E-02    0.152E-01
RMM:   4    -0.231664209143E+04    0.17644E-03   -0.32795E-04  3466   0.100E-02    0.446E-02
RMM:   5    -0.231664205784E+04    0.33592E-04   -0.94985E-05  3407   0.753E-03    0.223E-02
RMM:   6    -0.231664205244E+04    0.53925E-05   -0.40493E-05  3204   0.674E-03
  71 F= -.23370875E+04 E0= -.23370875E+04  d E =-.567996E-03  mag=     4.0000
       N       E                     dE             d eps       ncg     rms          rms(c)
DAV:   1    -0.231664160364E+04    0.45419E-03   -0.53491E-02  4576   0.234E-01    0.662E-02
RMM:   2    -0.231664206201E+04   -0.45837E-03   -0.47419E-03  6125   0.456E-02    0.561E-02
RMM:   3    -0.231664208031E+04   -0.18294E-04   -0.42048E-04  3357   0.147E-02    0.602E-02
RMM:   4    -0.231664205317E+04    0.27141E-04   -0.48657E-05  2885   0.505E-03    0.165E-02
RMM:   5    -0.231664204874E+04    0.44262E-05   -0.14687E-05  2869   0.323E-03
  72 F= -.23370875E+04 E0= -.23370875E+04  d E =-.567110E-03  mag=     4.0000
       N       E                     dE             d eps       ncg     rms          rms(c)
DAV:   1    -0.231663967360E+04    0.23796E-02   -0.30253E-01  4440   0.548E-01    0.155E-01
RMM:   2    -0.231664262638E+04   -0.29528E-02   -0.30268E-02  5855   0.105E-01    0.145E-01
RMM:   3    -0.231664271230E+04   -0.85919E-04   -0.26575E-03  4742   0.345E-02    0.136E-01
RMM:   4    -0.231664257776E+04    0.13454E-03   -0.30135E-04  3152   0.907E-03    0.407E-02
RMM:   5    -0.231664255060E+04    0.27157E-04   -0.68733E-05  3062   0.645E-03    0.217E-02
RMM:   6    -0.231664254596E+04    0.46432E-05   -0.36154E-05  3015   0.630E-03
  73 F= -.23370879E+04 E0= -.23370879E+04  d E =-.466594E-03  mag=     4.0000
       N       E                     dE             d eps       ncg     rms          rms(c)
DAV:   1    -0.231664206007E+04    0.49053E-03   -0.51824E-02  4512   0.227E-01    0.654E-02
RMM:   2    -0.231664257667E+04   -0.51660E-03   -0.52823E-03  6160   0.459E-02    0.637E-02
RMM:   3    -0.231664258874E+04   -0.12078E-04   -0.46586E-04  3235   0.143E-02    0.583E-02
RMM:   4    -0.231664256423E+04    0.24509E-04   -0.53638E-05  2895   0.503E-03    0.168E-02
RMM:   5    -0.231664255988E+04    0.43570E-05   -0.13493E-05  2870   0.308E-03
  74 F= -.23370879E+04 E0= -.23370879E+04  d E =-.467816E-03  mag=     4.0000
       N       E                     dE             d eps       ncg     rms          rms(c)
DAV:   1    -0.231664003120E+04    0.25330E-02   -0.27913E-01  4440   0.526E-01    0.156E-01
RMM:   2    -0.231664310359E+04   -0.30724E-02   -0.31677E-02  5889   0.104E-01    0.125E-01
RMM:   3    -0.231664325547E+04   -0.15189E-03   -0.27584E-03  4693   0.346E-02    0.138E-01
RMM:   4    -0.231664312001E+04    0.13546E-03   -0.30780E-04  3086   0.903E-03    0.407E-02
RMM:   5    -0.231664309416E+04    0.25850E-04   -0.65202E-05  3041   0.646E-03    0.211E-02
RMM:   6    -0.231664309053E+04    0.36313E-05   -0.31722E-05  2946   0.615E-03
  75 F= -.23370885E+04 E0= -.23370885E+04  d E =-.525916E-03  mag=     4.0000
       N       E                     dE             d eps       ncg     rms          rms(c)
DAV:   1    -0.231664188838E+04    0.12058E-02   -0.11138E-01  4440   0.332E-01    0.993E-02
RMM:   2    -0.231664313241E+04   -0.12440E-02   -0.12770E-02  6096   0.676E-02    0.850E-02
RMM:   3    -0.231664318776E+04   -0.55348E-04   -0.11197E-03  3810   0.220E-02    0.899E-02
RMM:   4    -0.231664312985E+04    0.57912E-04   -0.12574E-04  2944   0.676E-03    0.256E-02
RMM:   5    -0.231664311989E+04    0.99549E-05   -0.28839E-05  2892   0.438E-03
  76 F= -.23370885E+04 E0= -.23370885E+04  d E =-.552343E-03  mag=     4.0000
       N       E                     dE             d eps       ncg     rms          rms(c)
DAV:   1    -0.231664074239E+04    0.23875E-02   -0.24299E-01  4408   0.490E-01    0.146E-01
RMM:   2    -0.231664353279E+04   -0.27904E-02   -0.29073E-02  5968   0.976E-02    0.966E-02
RMM:   3    -0.231664369930E+04   -0.16651E-03   -0.25670E-03  4553   0.329E-02    0.116E-01
RMM:   4    -0.231664361016E+04    0.89141E-04   -0.27295E-04  3019   0.848E-03    0.396E-02
RMM:   5    -0.231664358828E+04    0.21880E-04   -0.54561E-05  2934   0.583E-03    0.199E-02
RMM:   6    -0.231664358639E+04    0.18881E-05   -0.27009E-05  2934   0.554E-03
  77 F= -.23370890E+04 E0= -.23370890E+04  d E =-.511237E-03  mag=     4.0000
       N       E                     dE             d eps       ncg     rms          rms(c)
DAV:   1    -0.231664061901E+04    0.29693E-02   -0.25719E-01  4440   0.504E-01    0.152E-01
RMM:   2    -0.231664360682E+04   -0.29878E-02   -0.30886E-02  5974   0.101E-01    0.114E-01
RMM:   3    -0.231664377720E+04   -0.17038E-03   -0.27491E-03  4702   0.352E-02    0.132E-01
RMM:   4    -0.231664365648E+04    0.12072E-03   -0.29565E-04  3042   0.894E-03    0.392E-02
RMM:   5    -0.231664363391E+04    0.22565E-04   -0.58020E-05  2968   0.601E-03    0.204E-02
RMM:   6    -0.231664363126E+04    0.26484E-05   -0.28554E-05  2938   0.579E-03
  78 F= -.23370891E+04 E0= -.23370891E+04  d E =-.602201E-03  mag=     4.0000
       N       E                     dE             d eps       ncg     rms          rms(c)
DAV:   1    -0.231664066069E+04    0.29732E-02   -0.30208E-01  4408   0.542E-01    0.159E-01
RMM:   2    -0.231664404519E+04   -0.33845E-02   -0.34958E-02  5994   0.108E-01    0.129E-01
RMM:   3    -0.231664421734E+04   -0.17215E-03   -0.31356E-03  4904   0.370E-02    0.138E-01
RMM:   4    -0.231664408680E+04    0.13053E-03   -0.33316E-04  3085   0.942E-03    0.430E-02
RMM:   5    -0.231664405991E+04    0.26895E-04   -0.67788E-05  3057   0.651E-03    0.222E-02
RMM:   6    -0.231664405638E+04    0.35305E-05   -0.34285E-05  2972   0.625E-03
  79 F= -.23370896E+04 E0= -.23370896E+04  d E =-.502577E-03  mag=     4.0000
       N       E                     dE             d eps       ncg     rms          rms(c)
DAV:   1    -0.231664269481E+04    0.13651E-02   -0.11771E-01  4456   0.338E-01    0.999E-02
RMM:   2    -0.231664401840E+04   -0.13236E-02   -0.13698E-02  6135   0.687E-02    0.800E-02
RMM:   3    -0.231664408692E+04   -0.68522E-04   -0.12314E-03  3837   0.222E-02    0.874E-02
RMM:   4    -0.231664403480E+04    0.52122E-04   -0.13217E-04  2934   0.674E-03    0.269E-02
RMM:   5    -0.231664402438E+04    0.10415E-04   -0.28736E-05  2883   0.433E-03    0.140E-02
RMM:   6    -0.231664402274E+04    0.16424E-05   -0.13580E-05  2875   0.412E-03
  80 F= -.23370896E+04 E0= -.23370896E+04  d E =-.517464E-03  mag=     4.0000
       N       E                     dE             d eps       ncg     rms          rms(c)
DAV:   1    -0.231664082656E+04    0.31978E-02   -0.37653E-01  4408   0.607E-01    0.174E-01
RMM:   2    -0.231664455256E+04   -0.37260E-02   -0.37984E-02  5886   0.116E-01    0.168E-01
RMM:   3    -0.231664465367E+04   -0.10111E-03   -0.34086E-03  4995   0.407E-02    0.151E-01
RMM:   4    -0.231664448980E+04    0.16387E-03   -0.37103E-04  3273   0.101E-02    0.453E-02
RMM:   5    -0.231664445841E+04    0.31394E-04   -0.78146E-05  3169   0.704E-03    0.241E-02
RMM:   6    -0.231664445354E+04    0.48676E-05   -0.43044E-05  3117   0.680E-03
  81 F= -.23370901E+04 E0= -.23370901E+04  d E =-.497853E-03  mag=     4.0000
       N       E                     dE             d eps       ncg     rms          rms(c)
DAV:   1    -0.231664365408E+04    0.80433E-03   -0.79238E-02  4512   0.279E-01    0.809E-02
RMM:   2    -0.231664444579E+04   -0.79171E-03   -0.81028E-03  6149   0.558E-02    0.755E-02
RMM:   3    -0.231664447048E+04   -0.24695E-04   -0.72614E-04  3534   0.178E-02    0.716E-02
RMM:   4    -0.231664443414E+04    0.36345E-04   -0.80865E-05  2906   0.588E-03    0.209E-02
RMM:   5    -0.231664442785E+04    0.62837E-05   -0.18840E-05  2876   0.361E-03
  82 F= -.23370901E+04 E0= -.23370901E+04  d E =-.502952E-03  mag=     4.0000
       N       E                     dE             d eps       ncg     rms          rms(c)
DAV:   1    -0.231664135312E+04    0.30810E-02   -0.40744E-01  4440   0.631E-01    0.177E-01
RMM:   2    -0.231664514788E+04   -0.37948E-02   -0.38745E-02  5874   0.119E-01    0.176E-01
RMM:   3    -0.231664522274E+04   -0.74856E-04   -0.34597E-03  5011   0.403E-02    0.151E-01
RMM:   4    -0.231664505670E+04    0.16604E-03   -0.38507E-04  3375   0.101E-02    0.474E-02
RMM:   5    -0.231664502065E+04    0.36051E-04   -0.84295E-05  3219   0.720E-03    0.250E-02
RMM:   6    -0.231664501396E+04    0.66970E-05   -0.48002E-05  3189   0.696E-03
  83 F= -.23370907E+04 E0= -.23370907E+04  d E =-.622938E-03  mag=     4.0000
       N       E                     dE             d eps       ncg     rms          rms(c)
DAV:   1    -0.231664359967E+04    0.14210E-02   -0.15680E-01  4424   0.391E-01    0.111E-01
RMM:   2    -0.231664508571E+04   -0.14860E-02   -0.15090E-02  6072   0.757E-02    0.117E-01
RMM:   3    -0.231664509909E+04   -0.13376E-04   -0.13557E-03  4089   0.255E-02    0.945E-02
RMM:   4    -0.231664503445E+04    0.64636E-04   -0.14996E-04  2976   0.738E-03    0.293E-02
RMM:   5    -0.231664502059E+04    0.13860E-04   -0.34866E-05  2909   0.492E-03    0.159E-02
RMM:   6    -0.231664501732E+04    0.32723E-05   -0.18634E-05  2879   0.484E-03
  84 F= -.23370908E+04 E0= -.23370908E+04  d E =-.649079E-03  mag=     4.0000
       N       E                     dE             d eps       ncg     rms          rms(c)
DAV:   1    -0.231664217871E+04    0.28419E-02   -0.36835E-01  4408   0.602E-01    0.165E-01
RMM:   2    -0.231664561991E+04   -0.34412E-02   -0.35231E-02  5890   0.113E-01    0.159E-01
RMM:   3    -0.231664571096E+04   -0.91049E-04   -0.31304E-03  4954   0.403E-02    0.144E-01
RMM:   4    -0.231664556442E+04    0.14654E-03   -0.34804E-04  3244   0.979E-03    0.450E-02
RMM:   5    -0.231664553438E+04    0.30043E-04   -0.73372E-05  3130   0.687E-03    0.239E-02
RMM:   6    -0.231664552947E+04    0.49130E-05   -0.43349E-05  3104   0.674E-03
  85 F= -.23370913E+04 E0= -.23370913E+04  d E =-.588002E-03  mag=     4.0000
       N       E                     dE             d eps       ncg     rms          rms(c)
DAV:   1    -0.231664160194E+04    0.39324E-02   -0.43232E-01  4408   0.652E-01    0.180E-01
RMM:   2    -0.231664564985E+04   -0.40479E-02   -0.41465E-02  5921   0.123E-01    0.172E-01
RMM:   3    -0.231664575922E+04   -0.10936E-03   -0.36651E-03  5149   0.424E-02    0.157E-01
RMM:   4    -0.231664558486E+04    0.17436E-03   -0.40953E-04  3331   0.105E-02    0.488E-02
RMM:   5    -0.231664554990E+04    0.34960E-04   -0.86541E-05  3302   0.727E-03    0.258E-02
RMM:   6    -0.231664554408E+04    0.58192E-05   -0.48409E-05  3189   0.698E-03
  86 F= -.23370914E+04 E0= -.23370914E+04  d E =-.684904E-03  mag=     4.0000
       N       E                     dE             d eps       ncg     rms          rms(c)
DAV:   1    -0.231664241321E+04    0.31367E-02   -0.37424E-01  4408   0.607E-01    0.165E-01
RMM:   2    -0.231664594846E+04   -0.35352E-02   -0.36764E-02  5980   0.115E-01    0.125E-01
RMM:   3    -0.231664613249E+04   -0.18403E-03   -0.32334E-03  4950   0.400E-02    0.141E-01
RMM:   4    -0.231664599823E+04    0.13426E-03   -0.35492E-04  3142   0.981E-03    0.468E-02
RMM:   5    -0.231664596923E+04    0.29002E-04   -0.71543E-05  3085   0.676E-03    0.237E-02
RMM:   6    -0.231664596640E+04    0.28349E-05   -0.39582E-05  3059   0.645E-03
  87 F= -.23370921E+04 E0= -.23370921E+04  d E =-.619611E-03  mag=     4.0000
       N       E                     dE             d eps       ncg     rms          rms(c)
DAV:   1    -0.231664021355E+04    0.57557E-02   -0.59799E-01  4408   0.767E-01    0.209E-01
RMM:   2    -0.231664586796E+04   -0.56544E-02   -0.58733E-02  5895   0.145E-01    0.160E-01
RMM:   3    -0.231664615002E+04   -0.28205E-03   -0.51431E-03  5228   0.500E-02    0.177E-01
RMM:   4    -0.231664593653E+04    0.21349E-03   -0.56492E-04  3473   0.119E-02    0.593E-02
RMM:   5    -0.231664588892E+04    0.47602E-04   -0.11462E-04  3575   0.826E-03    0.300E-02
RMM:   6    -0.231664588321E+04    0.57137E-05   -0.60546E-05  3411   0.742E-03
  88 F= -.23370922E+04 E0= -.23370922E+04  d E =-.786140E-03  mag=     4.0000
       N       E                     dE             d eps       ncg     rms          rms(c)
DAV:   1    -0.231664183956E+04    0.40494E-02   -0.47597E-01  4440   0.682E-01    0.188E-01
RMM:   2    -0.231664627248E+04   -0.44329E-02   -0.46509E-02  5954   0.129E-01    0.118E-01
RMM:   3    -0.231664650380E+04   -0.23131E-03   -0.41123E-03  5115   0.455E-02    0.135E-01
RMM:   4    -0.231664639329E+04    0.11051E-03   -0.43200E-04  3181   0.106E-02    0.564E-02
RMM:   5    -0.231664635336E+04    0.39932E-04   -0.93545E-05  3353   0.770E-03    0.269E-02
RMM:   6    -0.231664635033E+04    0.30320E-05   -0.45935E-05  3098   0.687E-03
  89 F= -.23370930E+04 E0= -.23370930E+04  d E =-.762188E-03  mag=     4.0000
       N       E                     dE             d eps       ncg     rms          rms(c)
DAV:   1    -0.231664211038E+04    0.42430E-02   -0.43153E-01  4440   0.650E-01    0.179E-01
RMM:   2    -0.231664613444E+04   -0.40241E-02   -0.42215E-02  5936   0.123E-01    0.112E-01
RMM:   3    -0.231664634149E+04   -0.20705E-03   -0.37249E-03  5020   0.435E-02    0.128E-01
RMM:   4    -0.231664624452E+04    0.96967E-04   -0.39122E-04  3163   0.101E-02    0.540E-02
RMM:   5    -0.231664620765E+04    0.36868E-04   -0.84577E-05  3219   0.740E-03    0.259E-02
RMM:   6    -0.231664620439E+04    0.32572E-05   -0.43224E-05  3110   0.668E-03
  90 F= -.23370931E+04 E0= -.23370931E+04  d E =-.897889E-03  mag=     4.0000
       N       E                     dE             d eps       ncg     rms          rms(c)
DAV:   1    -0.231664346160E+04    0.27461E-02   -0.37722E-01  4504   0.607E-01    0.174E-01
RMM:   2    -0.231664656630E+04   -0.31047E-02   -0.32766E-02  5917   0.113E-01    0.102E-01
RMM:   3    -0.231664669405E+04   -0.12776E-03   -0.26465E-03  4911   0.408E-02    0.121E-01
RMM:   4    -0.231664659991E+04    0.94139E-04   -0.30556E-04  3154   0.977E-03    0.514E-02
RMM:   5    -0.231664656683E+04    0.33079E-04   -0.79970E-05  3337   0.739E-03    0.232E-02
RMM:   6    -0.231664656371E+04    0.31187E-05   -0.36145E-05  3021   0.656E-03
  91 F= -.23370937E+04 E0= -.23370937E+04  d E =-.562036E-03  mag=     4.0000
       N       E                     dE             d eps       ncg     rms          rms(c)
DAV:   1    -0.231664569978E+04    0.86705E-03   -0.94893E-02  4592   0.304E-01    0.873E-02
RMM:   2    -0.231664648921E+04   -0.78943E-03   -0.83287E-03  6092   0.585E-02    0.510E-02
RMM:   3    -0.231664652012E+04   -0.30909E-04   -0.66278E-04  3651   0.194E-02    0.607E-02
RMM:   4    -0.231664649674E+04    0.23381E-04   -0.77914E-05  2892   0.576E-03    0.259E-02
RMM:   5    -0.231664648836E+04    0.83830E-05   -0.21094E-05  2886   0.394E-03
  92 F= -.23370937E+04 E0= -.23370937E+04  d E =-.588705E-03  mag=     4.0000
       N       E                     dE             d eps       ncg     rms          rms(c)
DAV:   1    -0.231664463983E+04    0.18569E-02   -0.30854E-01  4440   0.537E-01    0.150E-01
RMM:   2    -0.231664698958E+04   -0.23497E-02   -0.24797E-02  5866   0.987E-02    0.965E-02
RMM:   3    -0.231664707019E+04   -0.80611E-04   -0.19419E-03  4577   0.335E-02    0.111E-01
RMM:   4    -0.231664698957E+04    0.80621E-04   -0.23772E-04  3064   0.862E-03    0.473E-02
RMM:   5    -0.231664696182E+04    0.27742E-04   -0.67150E-05  3113   0.679E-03    0.210E-02
RMM:   6    -0.231664695925E+04    0.25755E-05   -0.31042E-05  2967   0.613E-03
  93 F= -.23370943E+04 E0= -.23370943E+04  d E =-.606955E-03  mag=     4.0000
       N       E                     dE             d eps       ncg     rms          rms(c)
DAV:   1    -0.231664559113E+04    0.13707E-02   -0.17581E-01  4472   0.406E-01    0.114E-01
RMM:   2    -0.231664695414E+04   -0.13630E-02   -0.14300E-02  6017   0.762E-02    0.815E-02
RMM:   3    -0.231664700119E+04   -0.47052E-04   -0.11222E-03  4133   0.250E-02    0.950E-02
RMM:   4    -0.231664693658E+04    0.64609E-04   -0.13843E-04  2961   0.738E-03    0.339E-02
RMM:   5    -0.231664692140E+04    0.15189E-04   -0.42580E-05  2937   0.535E-03    0.156E-02
RMM:   6    -0.231664691914E+04    0.22594E-05   -0.17322E-05  2888   0.492E-03
  94 F= -.23370944E+04 E0= -.23370944E+04  d E =-.669729E-03  mag=     4.0000
       N       E                     dE             d eps       ncg     rms          rms(c)
DAV:   1    -0.231664500991E+04    0.19115E-02   -0.31543E-01  4408   0.548E-01    0.152E-01
RMM:   2    -0.231664733830E+04   -0.23284E-02   -0.24478E-02  5859   0.100E-01    0.110E-01
RMM:   3    -0.231664741716E+04   -0.78861E-04   -0.19267E-03  4711   0.354E-02    0.126E-01
RMM:   4    -0.231664730103E+04    0.11613E-03   -0.23564E-04  3116   0.903E-03    0.445E-02
RMM:   5    -0.231664727527E+04    0.25767E-04   -0.73004E-05  3264   0.697E-03    0.204E-02
RMM:   6    -0.231664727188E+04    0.33853E-05   -0.31454E-05  2967   0.624E-03
  95 F= -.23370949E+04 E0= -.23370949E+04  d E =-.522275E-03  mag=     4.0000
       N       E                     dE             d eps       ncg     rms          rms(c)
DAV:   1    -0.231664663501E+04    0.64025E-03   -0.78625E-02  4496   0.274E-01    0.766E-02
RMM:   2    -0.231664722303E+04   -0.58801E-03   -0.61888E-03  6121   0.519E-02    0.548E-02
RMM:   3    -0.231664724253E+04   -0.19506E-04   -0.47749E-04  3513   0.163E-02    0.645E-02
RMM:   4    -0.231664721234E+04    0.30193E-04   -0.60326E-05  2885   0.551E-03    0.223E-02
RMM:   5    -0.231664720586E+04    0.64843E-05   -0.19784E-05  2887   0.372E-03
  96 F= -.23370949E+04 E0= -.23370949E+04  d E =-.541117E-03  mag=     4.0000
       N       E                     dE             d eps       ncg     rms          rms(c)
DAV:   1    -0.231664617771E+04    0.10346E-02   -0.19622E-01  4440   0.445E-01    0.133E-01
RMM:   2    -0.231664753768E+04   -0.13600E-02   -0.14586E-02  5840   0.810E-02    0.707E-02
RMM:   3    -0.231664758553E+04   -0.47847E-04   -0.11776E-03  4328   0.292E-02    0.844E-02
RMM:   4    -0.231664753991E+04    0.45621E-04   -0.14810E-04  2990   0.768E-03    0.404E-02
RMM:   5    -0.231664751996E+04    0.19951E-04   -0.50512E-05  3086   0.634E-03    0.152E-02
RMM:   6    -0.231664751876E+04    0.11924E-05   -0.18690E-05  2887   0.552E-03
  97 F= -.23370954E+04 E0= -.23370954E+04  d E =-.459498E-03  mag=     4.0000
       N       E                     dE             d eps       ncg     rms          rms(c)
DAV:   1    -0.231664732168E+04    0.19827E-03   -0.21371E-02  4720   0.147E-01    0.444E-02
RMM:   2    -0.231664747578E+04   -0.15410E-03   -0.16390E-03  5870   0.288E-02    0.253E-02
RMM:   3    -0.231664748234E+04   -0.65578E-05   -0.13143E-04  3003   0.101E-02    0.337E-02
RMM:   4    -0.231664747433E+04    0.80129E-05   -0.18520E-05  2856   0.353E-03
  98 F= -.23370954E+04 E0= -.23370954E+04  d E =-.463617E-03  mag=     4.0000
       N       E                     dE             d eps       ncg     rms          rms(c)
DAV:   1    -0.231664683217E+04    0.65016E-03   -0.11695E-01  4408   0.346E-01    0.105E-01
RMM:   2    -0.231664766993E+04   -0.83775E-03   -0.89725E-03  5742   0.632E-02    0.535E-02
RMM:   3    -0.231664769385E+04   -0.23927E-04   -0.73153E-04  3922   0.224E-02    0.581E-02
RMM:   4    -0.231664767596E+04    0.17893E-04   -0.95513E-05  2913   0.631E-03    0.357E-02
RMM:   5    -0.231664766156E+04    0.14403E-04   -0.34213E-05  2913   0.528E-03    0.117E-02
RMM:   6    -0.231664766112E+04    0.43341E-06   -0.11159E-05  2857   0.447E-03
  99 F= -.23370957E+04 E0= -.23370957E+04  d E =-.310421E-03  mag=     4.0000
       N       E                     dE             d eps       ncg     rms          rms(c)
DAV:   1    -0.231664753962E+04    0.12193E-03   -0.11763E-02  4640   0.110E-01    0.338E-02
RMM:   2    -0.231664762638E+04   -0.86753E-04   -0.92580E-04  5615   0.213E-02    0.161E-02
RMM:   3    -0.231664762843E+04   -0.20522E-05   -0.73076E-05  2903   0.823E-03
 100 F= -.23370957E+04 E0= -.23370957E+04  d E =-.317120E-03  mag=     4.0000
       N       E                     dE             d eps       ncg     rms          rms(c)
[...]
       N       E                     dE             d eps       ncg     rms          rms(c)
DAV:   1    -0.231665737408E+04    0.30866E-03   -0.33380E-02  4448   0.154E-01    0.643E-02
RMM:   2    -0.231665769036E+04   -0.31629E-03   -0.33711E-03  6060   0.339E-02    0.379E-02
RMM:   3    -0.231665771499E+04   -0.24620E-04   -0.29905E-04  3078   0.118E-02    0.498E-02
RMM:   4    -0.231665769621E+04    0.18774E-04   -0.40091E-05  2880   0.426E-03    0.186E-02
RMM:   5    -0.231665769258E+04    0.36311E-05   -0.11976E-05  2860   0.301E-03
 172 F= -.23371065E+04 E0= -.23371065E+04  d E =-.349358E-03  mag=     4.0000
       N       E                     dE             d eps       ncg     rms          rms(c)
DAV:   1    -0.231665749141E+04    0.20480E-03   -0.62588E-02  4408   0.210E-01    0.858E-02
RMM:   2    -0.231665804897E+04   -0.55755E-03   -0.59958E-03  6062   0.444E-02    0.490E-02
RMM:   3    -0.231665808789E+04   -0.38919E-04   -0.52931E-04  3396   0.159E-02    0.637E-02
RMM:   4    -0.231665805711E+04    0.30779E-04   -0.70185E-05  2902   0.548E-03    0.255E-02
RMM:   5    -0.231665804954E+04    0.75719E-05   -0.22701E-05  2873   0.414E-03
 173 F= -.23371068E+04 E0= -.23371068E+04  d E =-.338098E-03  mag=     4.0000
       N       E                     dE             d eps       ncg     rms          rms(c)
DAV:   1    -0.231665783970E+04    0.21740E-03   -0.30406E-02  4464   0.147E-01    0.598E-02
RMM:   2    -0.231665811255E+04   -0.27285E-03   -0.29497E-03  6057   0.322E-02    0.312E-02
RMM:   3    -0.231665812732E+04   -0.14765E-04   -0.25602E-04  3053   0.113E-02    0.361E-02
RMM:   4    -0.231665811902E+04    0.82918E-05   -0.33888E-05  2880   0.383E-03
 174 F= -.23371069E+04 E0= -.23371069E+04  d E =-.394494E-03  mag=     4.0000
       N       E                     dE             d eps       ncg     rms          rms(c)
DAV:   1    -0.231665779067E+04    0.33664E-03   -0.79878E-02  4472   0.239E-01    0.999E-02
RMM:   2    -0.231665848751E+04   -0.69683E-03   -0.74669E-03  5993   0.501E-02    0.640E-02
RMM:   3    -0.231665854394E+04   -0.56432E-04   -0.66517E-04  3591   0.177E-02    0.871E-02
RMM:   4    -0.231665848230E+04    0.61643E-04   -0.98623E-05  2950   0.621E-03    0.278E-02
RMM:   5    -0.231665847439E+04    0.79070E-05   -0.32816E-05  2925   0.478E-03
 175 F= -.23371073E+04 E0= -.23371073E+04  d E =-.389702E-03  mag=     4.0000
       N       E                     dE             d eps       ncg     rms          rms(c)
DAV:   1    -0.231665825562E+04    0.22667E-03   -0.27225E-02  4608   0.139E-01    0.583E-02
RMM:   2    -0.231665849641E+04   -0.24078E-03   -0.25838E-03  6015   0.309E-02    0.344E-02
RMM:   3    -0.231665851437E+04   -0.17961E-04   -0.22044E-04  3043   0.105E-02    0.475E-02
RMM:   4    -0.231665849671E+04    0.17663E-04   -0.32159E-05  2870   0.405E-03    0.164E-02
RMM:   5    -0.231665849377E+04    0.29310E-05   -0.10641E-05  2859   0.282E-03
 176 F= -.23371073E+04 E0= -.23371073E+04  d E =-.429349E-03  mag=     4.0000
       N       E                     dE             d eps       ncg     rms          rms(c)
DAV:   1    -0.231665806779E+04    0.42891E-03   -0.72927E-02  4408   0.216E-01    0.914E-02
RMM:   2    -0.231665875387E+04   -0.68608E-03   -0.74032E-03  6055   0.469E-02    0.500E-02
RMM:   3    -0.231665879327E+04   -0.39398E-04   -0.60731E-04  3404   0.164E-02    0.603E-02
RMM:   4    -0.231665876876E+04    0.24514E-04   -0.81222E-05  2914   0.555E-03    0.303E-02
RMM:   5    -0.231665875978E+04    0.89743E-05   -0.26415E-05  2873   0.425E-03
 177 F= -.23371077E+04 E0= -.23371077E+04  d E =-.374684E-03  mag=     4.0000
       N       E                     dE             d eps       ncg     rms          rms(c)
DAV:   1    -0.231665827185E+04    0.49691E-03   -0.48920E-02  4408   0.177E-01    0.750E-02
RMM:   2    -0.231665873061E+04   -0.45876E-03   -0.49726E-03  6149   0.396E-02    0.387E-02
RMM:   3    -0.231665875459E+04   -0.23972E-04   -0.43150E-04  3153   0.134E-02    0.396E-02
RMM:   4    -0.231665874776E+04    0.68244E-05   -0.56090E-05  2909   0.447E-03
 178 F= -.23371077E+04 E0= -.23371077E+04  d E =-.452273E-03  mag=     4.0000
       N       E                     dE             d eps       ncg     rms          rms(c)
DAV:   1    -0.231665835635E+04    0.39824E-03   -0.84104E-02  4408   0.239E-01    0.103E-01
RMM:   2    -0.231665915165E+04   -0.79530E-03   -0.85383E-03  5994   0.517E-02    0.642E-02
RMM:   3    -0.231665921466E+04   -0.63012E-04   -0.75422E-04  3624   0.188E-02    0.853E-02
RMM:   4    -0.231665915851E+04    0.56150E-04   -0.10743E-04  2944   0.624E-03    0.311E-02
RMM:   5    -0.231665914964E+04    0.88714E-05   -0.35679E-05  2925   0.483E-03
 179 F= -.23371082E+04 E0= -.23371082E+04  d E =-.481584E-03  mag=     4.0000
       N       E                     dE             d eps       ncg     rms          rms(c)
DAV:   1    -0.231665850124E+04    0.65727E-03   -0.71119E-02  4408   0.220E-01    0.937E-02
RMM:   2    -0.231665917263E+04   -0.67139E-03   -0.72677E-03  6153   0.485E-02    0.481E-02
RMM:   3    -0.231665920772E+04   -0.35088E-04   -0.59343E-04  3419   0.164E-02    0.548E-02
RMM:   4    -0.231665919025E+04    0.17467E-04   -0.79545E-05  2909   0.548E-03    0.325E-02
RMM:   5    -0.231665918065E+04    0.96008E-05   -0.26665E-05  2870   0.434E-03
 180 F= -.23371083E+04 E0= -.23371083E+04  d E =-.586375E-03  mag=     4.0000
       N       E                     dE             d eps       ncg     rms          rms(c)
DAV:   1    -0.231665870282E+04    0.48743E-03   -0.92730E-02  4408   0.246E-01    0.104E-01
RMM:   2    -0.231665958904E+04   -0.88621E-03   -0.96142E-03  6126   0.538E-02    0.495E-02
RMM:   3    -0.231665963541E+04   -0.46375E-04   -0.89008E-04  3549   0.194E-02    0.386E-02
RMM:   4    -0.231665963787E+04   -0.24573E-05   -0.10165E-04  2938   0.561E-03    0.418E-02
RMM:   5    -0.231665962552E+04    0.12345E-04   -0.37184E-05  2880   0.470E-03    0.183E-02
RMM:   6    -0.231665962297E+04    0.25535E-05   -0.10494E-05  2869   0.368E-03
 181 F= -.23371088E+04 E0= -.23371088E+04  d E =-.464241E-03  mag=     4.0000
       N       E                     dE             d eps       ncg     rms          rms(c)
DAV:   1    -0.231665886126E+04    0.76426E-03   -0.87443E-02  4408   0.239E-01    0.101E-01
RMM:   2    -0.231665971280E+04   -0.85154E-03   -0.91944E-03  6047   0.522E-02    0.483E-02
RMM:   3    -0.231665974632E+04   -0.33520E-04   -0.73298E-04  3490   0.179E-02    0.417E-02
RMM:   4    -0.231665974530E+04    0.10234E-05   -0.94292E-05  2928   0.528E-03
 182 F= -.23371089E+04 E0= -.23371089E+04  d E =-.608335E-03  mag=     4.0000
       N       E                     dE             d eps       ncg     rms          rms(c)
DAV:   1    -0.231665914337E+04    0.60295E-03   -0.12611E-01  4472   0.297E-01    0.129E-01
RMM:   2    -0.231666029756E+04   -0.11542E-02   -0.12471E-02  6010   0.634E-02    0.767E-02
RMM:   3    -0.231666039492E+04   -0.97360E-04   -0.11197E-03  4077   0.233E-02    0.105E-01
RMM:   4    -0.231666031101E+04    0.83911E-04   -0.15690E-04  3020   0.739E-03    0.386E-02
RMM:   5    -0.231666029812E+04    0.12889E-04   -0.56186E-05  3079   0.585E-03    0.116E-02
RMM:   6    -0.231666029862E+04   -0.50134E-06   -0.11519E-05  2863   0.487E-03
 183 F= -.23371096E+04 E0= -.23371096E+04  d E =-.610808E-03  mag=     4.0000
       N       E                     dE             d eps       ncg     rms          rms(c)
DAV:   1    -0.231665988825E+04    0.40987E-03   -0.49326E-02  4584   0.185E-01    0.799E-02
RMM:   2    -0.231666033548E+04   -0.44722E-03   -0.48767E-03  5977   0.397E-02    0.364E-02
RMM:   3    -0.231666035246E+04   -0.16980E-04   -0.39341E-04  3334   0.146E-02    0.307E-02
RMM:   4    -0.231666035279E+04   -0.33347E-06   -0.51759E-05  2901   0.432E-03
 184 F= -.23371096E+04 E0= -.23371096E+04  d E =-.701161E-03  mag=     4.0000
       N       E                     dE             d eps       ncg     rms          rms(c)
DAV:   1    -0.231665940313E+04    0.94933E-03   -0.14736E-01  4408   0.312E-01    0.134E-01
RMM:   2    -0.231666074760E+04   -0.13445E-02   -0.14568E-02  5985   0.671E-02    0.796E-02
RMM:   3    -0.231666085096E+04   -0.10336E-03   -0.12831E-03  4162   0.242E-02    0.105E-01
RMM:   4    -0.231666076796E+04    0.83000E-04   -0.17842E-04  3030   0.755E-03    0.419E-02
RMM:   5    -0.231666074982E+04    0.18142E-04   -0.61242E-05  3214   0.617E-03    0.128E-02
RMM:   6    -0.231666074920E+04    0.62125E-06   -0.13565E-05  2875   0.509E-03
 185 F= -.23371102E+04 E0= -.23371102E+04  d E =-.533191E-03  mag=     4.0000
       N       E                     dE             d eps       ncg     rms          rms(c)
DAV:   1    -0.231666049560E+04    0.25422E-03   -0.24274E-02  4608   0.127E-01    0.538E-02
RMM:   2    -0.231666071763E+04   -0.22203E-03   -0.24250E-03  5897   0.280E-02    0.261E-02
RMM:   3    -0.231666072670E+04   -0.90709E-05   -0.19966E-04  2973   0.104E-02    0.231E-02
RMM:   4    -0.231666072601E+04    0.68979E-06   -0.26797E-05  2877   0.323E-03
 186 F= -.23371102E+04 E0= -.23371102E+04  d E =-.565813E-03  mag=     4.0000
       N       E                     dE             d eps       ncg     rms          rms(c)
DAV:   1    -0.231665998084E+04    0.74586E-03   -0.14442E-01  4408   0.313E-01    0.134E-01
RMM:   2    -0.231666125257E+04   -0.12717E-02   -0.13800E-02  5971   0.663E-02    0.774E-02
RMM:   3    -0.231666135283E+04   -0.10025E-03   -0.12062E-03  4110   0.231E-02    0.104E-01
RMM:   4    -0.231666126981E+04    0.83020E-04   -0.16946E-04  3035   0.744E-03    0.400E-02
RMM:   5    -0.231666125463E+04    0.15178E-04   -0.55479E-05  3077   0.592E-03    0.125E-02
RMM:   6    -0.231666125479E+04   -0.16417E-06   -0.13019E-05  2874   0.491E-03
 187 F= -.23371108E+04 E0= -.23371108E+04  d E =-.635352E-03  mag=     4.0000
       N       E                     dE             d eps       ncg     rms          rms(c)
DAV:   1    -0.231666079508E+04    0.45955E-03   -0.52735E-02  4496   0.189E-01    0.807E-02
RMM:   2    -0.231666125849E+04   -0.46341E-03   -0.50504E-03  5971   0.404E-02    0.399E-02
RMM:   3    -0.231666128320E+04   -0.24702E-04   -0.41769E-04  3278   0.144E-02    0.449E-02
RMM:   4    -0.231666127203E+04    0.11171E-04   -0.55681E-05  2895   0.461E-03    0.276E-02
RMM:   5    -0.231666126506E+04    0.69695E-05   -0.19494E-05  2857   0.367E-03
 188 F= -.23371109E+04 E0= -.23371109E+04  d E =-.710407E-03  mag=     4.0000
       N       E                     dE             d eps       ncg     rms          rms(c)
DAV:   1    -0.231666043145E+04    0.84058E-03   -0.15974E-01  4408   0.325E-01    0.136E-01
RMM:   2    -0.231666191618E+04   -0.14847E-02   -0.16160E-02  6033   0.699E-02    0.710E-02
RMM:   3    -0.231666199957E+04   -0.83391E-04   -0.13469E-03  4243   0.246E-02    0.795E-02
RMM:   4    -0.231666196244E+04    0.37132E-04   -0.17321E-04  2979   0.713E-03    0.473E-02
RMM:   5    -0.231666194068E+04    0.21763E-04   -0.57621E-05  2983   0.603E-03    0.161E-02
RMM:   6    -0.231666193916E+04    0.15160E-05   -0.18249E-05  2894   0.501E-03
 189 F= -.23371116E+04 E0= -.23371116E+04  d E =-.696329E-03  mag=     4.0000
       N       E                     dE             d eps       ncg     rms          rms(c)
DAV:   1    -0.231666127646E+04    0.66421E-03   -0.78430E-02  4432   0.228E-01    0.952E-02
RMM:   2    -0.231666201330E+04   -0.73683E-03   -0.79843E-03  6045   0.497E-02    0.519E-02
RMM:   3    -0.231666205886E+04   -0.45562E-04   -0.66770E-04  3483   0.174E-02    0.630E-02
RMM:   4    -0.231666203151E+04    0.27348E-04   -0.86606E-05  2912   0.562E-03    0.311E-02
RMM:   5    -0.231666202097E+04    0.10543E-04   -0.29154E-05  2881   0.439E-03    0.103E-02
RMM:   6    -0.231666202002E+04    0.95149E-06   -0.92929E-06  2858   0.376E-03
 190 F= -.23371117E+04 E0= -.23371117E+04  d E =-.793292E-03  mag=     4.0000
       N       E                     dE             d eps       ncg     rms          rms(c)
DAV:   1    -0.231666120395E+04    0.81702E-03   -0.14511E-01  4440   0.301E-01    0.129E-01
RMM:   2    -0.231666268317E+04   -0.14792E-02   -0.15965E-02  6043   0.663E-02    0.703E-02
RMM:   3    -0.231666277604E+04   -0.92870E-04   -0.13312E-03  4014   0.229E-02    0.800E-02
RMM:   4    -0.231666273749E+04    0.38547E-04   -0.16860E-04  2977   0.686E-03    0.442E-02
RMM:   5    -0.231666272054E+04    0.16949E-04   -0.49154E-05  2923   0.546E-03    0.153E-02
RMM:   6    -0.231666272025E+04    0.29404E-06   -0.15576E-05  2886   0.453E-03
 191 F= -.23371124E+04 E0= -.23371124E+04  d E =-.717070E-03  mag=     4.0000
       N       E                     dE             d eps       ncg     rms          rms(c)
DAV:   1    -0.231666133249E+04    0.13881E-02   -0.15152E-01  4440   0.308E-01    0.132E-01
RMM:   2    -0.231666287309E+04   -0.15406E-02   -0.16637E-02  6021   0.675E-02    0.708E-02
RMM:   3    -0.231666296727E+04   -0.94184E-04   -0.13844E-03  4043   0.233E-02    0.786E-02
RMM:   4    -0.231666293212E+04    0.35153E-04   -0.17524E-04  2977   0.686E-03    0.461E-02
RMM:   5    -0.231666291340E+04    0.18715E-04   -0.51270E-05  2920   0.556E-03    0.159E-02
RMM:   6    -0.231666291278E+04    0.62303E-06   -0.16731E-05  2888   0.459E-03
 192 F= -.23371126E+04 E0= -.23371126E+04  d E =-.927659E-03  mag=     4.0000
       N       E                     dE             d eps       ncg     rms          rms(c)
DAV:   1    -0.231666191770E+04    0.99570E-03   -0.16218E-01  4408   0.319E-01    0.138E-01
RMM:   2    -0.231666364722E+04   -0.17295E-02   -0.18778E-02  6068   0.706E-02    0.689E-02
RMM:   3    -0.231666373488E+04   -0.87657E-04   -0.15346E-03  4127   0.247E-02    0.620E-02
RMM:   4    -0.231666372801E+04    0.68716E-05   -0.19213E-04  2977   0.694E-03    0.550E-02
RMM:   5    -0.231666370328E+04    0.24727E-04   -0.60380E-05  2915   0.581E-03    0.203E-02
RMM:   6    -0.231666370065E+04    0.26262E-05   -0.19220E-05  2913   0.471E-03
 193 F= -.23371135E+04 E0= -.23371135E+04  d E =-.865814E-03  mag=     4.0000
       N       E                     dE             d eps       ncg     rms          rms(c)
DAV:   1    -0.231666153354E+04    0.21697E-02   -0.21526E-01  4408   0.367E-01    0.159E-01
RMM:   2    -0.231666382258E+04   -0.22890E-02   -0.24872E-02  6035   0.812E-02    0.777E-02
RMM:   3    -0.231666393038E+04   -0.10779E-03   -0.20268E-03  4489   0.279E-02    0.631E-02
RMM:   4    -0.231666393328E+04   -0.29082E-05   -0.25083E-04  3065   0.762E-03    0.658E-02
RMM:   5    -0.231666389921E+04    0.34078E-04   -0.83629E-05  2964   0.656E-03    0.261E-02
RMM:   6    -0.231666389371E+04    0.54952E-05   -0.24455E-05  2946   0.513E-03
 194 F= -.23371138E+04 E0= -.23371138E+04  d E =-.114996E-02  mag=     4.0000
       N       E                     dE             d eps       ncg     rms          rms(c)
DAV:   1    -0.231666247588E+04    0.14233E-02   -0.19600E-01  4408   0.339E-01    0.150E-01
RMM:   2    -0.231666466656E+04   -0.21907E-02   -0.23781E-02  6113   0.772E-02    0.734E-02
RMM:   3    -0.231666477105E+04   -0.10449E-03   -0.19458E-03  4282   0.262E-02    0.506E-02
RMM:   4    -0.231666478295E+04   -0.11894E-04   -0.22684E-04  3046   0.720E-03    0.598E-02
RMM:   5    -0.231666476275E+04    0.20194E-04   -0.78041E-05  2918   0.614E-03    0.322E-02
RMM:   6    -0.231666475533E+04    0.74231E-05   -0.19287E-05  2905   0.444E-03
 195 F= -.23371147E+04 E0= -.23371147E+04  d E =-.949379E-03  mag=     4.0000
       N       E                     dE             d eps       ncg     rms          rms(c)
DAV:   1    -0.231666213358E+04    0.26292E-02   -0.24718E-01  4408   0.381E-01    0.169E-01
RMM:   2    -0.231666490326E+04   -0.27697E-02   -0.30051E-02  6078   0.868E-02    0.823E-02
RMM:   3    -0.231666503626E+04   -0.13299E-03   -0.24749E-03  4589   0.296E-02    0.553E-02
RMM:   4    -0.231666504883E+04   -0.12579E-04   -0.28359E-04  3168   0.795E-03    0.640E-02
RMM:   5    -0.231666502810E+04    0.20735E-04   -0.97023E-05  2946   0.683E-03    0.389E-02
RMM:   6    -0.231666501618E+04    0.11919E-04   -0.23901E-05  2930   0.479E-03    0.975E-03
RMM:   7    -0.231666501573E+04    0.45128E-06   -0.54091E-06  2827   0.355E-03
 196 F= -.23371151E+04 E0= -.23371151E+04  d E =-.131008E-02  mag=     4.0000
       N       E                     dE             d eps       ncg     rms          rms(c)
DAV:   1    -0.231666321593E+04    0.18003E-02   -0.25919E-01  4408   0.395E-01    0.175E-01
RMM:   2    -0.231666604318E+04   -0.28273E-02   -0.30699E-02  6024   0.882E-02    0.917E-02
RMM:   3    -0.231666621227E+04   -0.16908E-03   -0.25639E-03  4768   0.290E-02    0.931E-02
RMM:   4    -0.231666617350E+04    0.38766E-04   -0.31463E-04  3075   0.827E-03    0.636E-02
RMM:   5    -0.231666613879E+04    0.34710E-04   -0.89192E-05  3071   0.682E-03    0.243E-02
RMM:   6    -0.231666613542E+04    0.33776E-05   -0.30232E-05  2963   0.554E-03
 197 F= -.23371163E+04 E0= -.23371163E+04  d E =-.118257E-02  mag=     4.0000
       N       E                     dE             d eps       ncg     rms          rms(c)
DAV:   1    -0.231666233425E+04    0.38045E-02   -0.36448E-01  4408   0.468E-01    0.207E-01
RMM:   2    -0.231666629484E+04   -0.39606E-02   -0.43130E-02  6022   0.105E-01    0.103E-01
RMM:   3    -0.231666650463E+04   -0.20978E-03   -0.35845E-03  5165   0.339E-02    0.898E-02
RMM:   4    -0.231666649524E+04    0.93863E-05   -0.43108E-04  3265   0.938E-03    0.825E-02
RMM:   5    -0.231666644106E+04    0.54178E-04   -0.13606E-04  3283   0.798E-03    0.326E-02
RMM:   6    -0.231666643307E+04    0.79900E-05   -0.40679E-05  3067   0.604E-03
 198 F= -.23371167E+04 E0= -.23371167E+04  d E =-.155702E-02  mag=     4.0000
       N       E                     dE             d eps       ncg     rms          rms(c)
DAV:   1    -0.231666514495E+04    0.12961E-02   -0.18842E-01  4448   0.313E-01    0.141E-01
RMM:   2    -0.231666725315E+04   -0.21082E-02   -0.22835E-02  6243   0.720E-02    0.729E-02
RMM:   3    -0.231666737907E+04   -0.12592E-03   -0.19390E-03  3934   0.236E-02    0.615E-02
RMM:   4    -0.231666737968E+04   -0.60347E-06   -0.22397E-04  2980   0.674E-03    0.571E-02
RMM:   5    -0.231666735729E+04    0.22384E-04   -0.64093E-05  2902   0.531E-03    0.241E-02
RMM:   6    -0.231666735484E+04    0.24498E-05   -0.19888E-05  2907   0.409E-03
 199 F= -.23371177E+04 E0= -.23371177E+04  d E =-.100133E-02  mag=     4.0000
       N       E                     dE             d eps       ncg     rms          rms(c)
DAV:   1    -0.231664850773E+04    0.18850E-01   -0.16951E+00  4408   0.940E-01    0.422E-01
RMM:   2    -0.231666748758E+04   -0.18980E-01   -0.20524E-01  6109   0.215E-01    0.225E-01
RMM:   3    -0.231666867989E+04   -0.11923E-02   -0.17634E-02  5630   0.682E-02    0.208E-01
RMM:   4    -0.231666857278E+04    0.10712E-03   -0.20409E-03  4610   0.179E-02    0.164E-01
RMM:   5    -0.231666837794E+04    0.19483E-03   -0.55423E-04  4162   0.133E-02    0.699E-02
RMM:   6    -0.231666835151E+04    0.26434E-04   -0.17049E-04  3797   0.913E-03    0.212E-02
RMM:   7    -0.231666834881E+04    0.26978E-05   -0.19265E-05  2897   0.542E-03
 200 F= -.23371189E+04 E0= -.23371189E+04  d E =-.224236E-02  mag=     4.0000
       N       E                     dE             d eps       ncg     rms          rms(c)
DAV:   1    -0.231666741427E+04    0.93724E-03   -0.16488E-01  4560   0.281E-01    0.130E-01
RMM:   2    -0.231666933862E+04   -0.19244E-02   -0.20775E-02  6120   0.659E-02    0.729E-02
RMM:   3    -0.231666946723E+04   -0.12861E-03   -0.17948E-03  3608   0.215E-02    0.698E-02
RMM:   4    -0.231666945129E+04    0.15944E-04   -0.20754E-04  2973   0.648E-03    0.495E-02
RMM:   5    -0.231666943339E+04    0.17895E-04   -0.51730E-05  2889   0.467E-03    0.209E-02
RMM:   6    -0.231666943176E+04    0.16303E-05   -0.18965E-05  2905   0.372E-03
 201 F= -.23371201E+04 E0= -.23371201E+04  d E =-.118561E-02  mag=     4.0000
