       N       E                     dE             d eps       ncg     rms          rms(c)
DAV:   1     0.129458389827E+05    0.12946E+05   -0.83556E+05  4480   0.144E+03
DAV:   2    -0.105459316063E+04   -0.14000E+05   -0.13403E+05  5060   0.330E+02
DAV:   3    -0.247330914565E+04   -0.14187E+04   -0.14048E+04  5340   0.112E+02
DAV:   4    -0.251471408569E+04   -0.41405E+02   -0.41214E+02  6500   0.274E+01
DAV:   5    -0.251548148830E+04   -0.76740E+00   -0.76607E+00  5560   0.301E+00    0.170E+02
RMM:   6    -0.148999555577E+04    0.10255E+04   -0.19332E+03  4429   0.385E+01    0.736E+01
RMM:   7    -0.166540643985E+04   -0.17541E+03   -0.31505E+02  5071   0.147E+01    0.564E+01
RMM:   8    -0.170856851567E+04   -0.43162E+02   -0.81425E+01  5249   0.860E+00    0.455E+01
RMM:   9    -0.176665916433E+04   -0.58091E+02   -0.65445E+01  5005   0.742E+00    0.377E+01
RMM:  10    -0.187573475190E+04   -0.10908E+03   -0.59356E+01  5312   0.740E+00    0.344E+01
RMM:  11    -0.194299253957E+04   -0.67258E+02   -0.30595E+01  5393   0.502E+00    0.253E+01
RMM:  12    -0.202480128486E+04   -0.81809E+02   -0.31859E+01  5004   0.456E+00    0.236E+01
RMM:  13    -0.206490256963E+04   -0.40101E+02   -0.14014E+01  5300   0.295E+00    0.152E+01
RMM:  14    -0.213439360320E+04   -0.69491E+02   -0.33364E+01  4605   0.425E+00    0.113E+01
RMM:  15    -0.224647825986E+04   -0.11208E+03   -0.98605E+01  4548   0.705E+00    0.110E+01
RMM:  16    -0.227987696517E+04   -0.33399E+02   -0.27960E+01  4610   0.419E+00    0.877E+00
RMM:  17    -0.229621391556E+04   -0.16337E+02   -0.15131E+01  4547   0.267E+00    0.508E+00
RMM:  18    -0.230224293973E+04   -0.60290E+01   -0.50176E+00  4835   0.183E+00    0.194E+00
RMM:  19    -0.230393368010E+04   -0.16907E+01   -0.10962E+00  5072   0.850E-01    0.161E+00
RMM:  20    -0.230438685815E+04   -0.45318E+00   -0.20813E-01  5049   0.340E-01    0.818E-01
RMM:  21    -0.230466850337E+04   -0.28165E+00   -0.78377E-02  4581   0.267E-01    0.607E-01
RMM:  22    -0.230477861030E+04   -0.11011E+00   -0.39255E-02  4670   0.164E-01    0.276E-01
RMM:  23    -0.230480417975E+04   -0.25569E-01   -0.13118E-02  4736   0.101E-01    0.196E-01
RMM:  24    -0.230482195197E+04   -0.17772E-01   -0.62599E-03  4461   0.660E-02    0.120E-01
RMM:  25    -0.230483481616E+04   -0.12864E-01   -0.42444E-03  4496   0.546E-02    0.834E-02
RMM:  26    -0.230484354362E+04   -0.87275E-02   -0.27179E-03  4513   0.428E-02    0.435E-02
RMM:  27    -0.230484887308E+04   -0.53295E-02   -0.18817E-03  4592   0.349E-02    0.320E-02
RMM:  28    -0.230485074560E+04   -0.18725E-02   -0.73878E-04  4368   0.226E-02    0.149E-02
RMM:  29    -0.230485150945E+04   -0.76385E-03   -0.23866E-04  3911   0.121E-02    0.119E-02
RMM:  30    -0.230485177954E+04   -0.27009E-03   -0.80709E-05  3662   0.946E-03    0.526E-03
RMM:  31    -0.230485190988E+04   -0.13035E-03   -0.34562E-05  3329   0.559E-03    0.368E-03
RMM:  32    -0.230485197406E+04   -0.64177E-04   -0.15162E-05  2957   0.452E-03    0.197E-03
RMM:  33    -0.230485200916E+04   -0.35096E-04   -0.10981E-05  2872   0.344E-03    0.132E-03
RMM:  34    -0.230485201828E+04   -0.91214E-05   -0.57762E-06  2582   0.291E-03
   1 F= -.23255565E+04 E0= -.23255565E+04  d E =-.219315E-10  mag=     6.0001
       N       E                     dE             d eps       ncg     rms          rms(c)
DAV:   1    -0.230485720622E+04   -0.51971E-02   -0.18353E+00  4520   0.506E-01    0.279E-01
RMM:   2    -0.230485933723E+04   -0.21310E-02   -0.17227E-02  4964   0.629E-02    0.262E-01
RMM:   3    -0.230485886974E+04    0.46749E-03   -0.27655E-03  4572   0.227E-02    0.206E-01
RMM:   4    -0.230485854763E+04    0.32211E-03   -0.73596E-04  3891   0.123E-02    0.940E-02
RMM:   5    -0.230485851252E+04    0.35113E-04   -0.29460E-04  3557   0.783E-03    0.724E-02
RMM:   6    -0.230485850366E+04    0.88574E-05   -0.12876E-04  2934   0.571E-03    0.633E-02
RMM:   7    -0.230485847026E+04    0.33399E-04   -0.32376E-05  2740   0.356E-03    0.129E-02
RMM:   8    -0.230485846926E+04    0.99842E-06   -0.62406E-06  2512   0.183E-03
   2 F= -.23255629E+04 E0= -.23255629E+04  d E =-.660912E-11  mag=     6.0000
       N       E                     dE             d eps       ncg     rms          rms(c)
DAV:   1    -0.230483019095E+04    0.28279E-01   -0.72820E+00  4420   0.101E+00    0.563E-01
RMM:   2    -0.230483890672E+04   -0.87158E-02   -0.72216E-02  5249   0.122E-01    0.518E-01
RMM:   3    -0.230483707965E+04    0.18271E-02   -0.11040E-02  5249   0.452E-02    0.407E-01
RMM:   4    -0.230483583359E+04    0.12461E-02   -0.29161E-03  5063   0.230E-02    0.191E-01
RMM:   5    -0.230483563820E+04    0.19540E-03   -0.11679E-03  4559   0.141E-02    0.124E-01
RMM:   6    -0.230483564485E+04   -0.66496E-05   -0.43720E-04  3291   0.959E-03    0.123E-01
RMM:   7    -0.230483552417E+04    0.12067E-03   -0.13487E-04  3053   0.645E-03    0.323E-02
RMM:   8    -0.230483551620E+04    0.79701E-05   -0.21927E-05  2800   0.313E-03
   3 F= -.23255400E+04 E0= -.23255400E+04  d E =-.509949E-11  mag=     6.0000
       N       E                     dE             d eps       ncg     rms          rms(c)
DAV:   1    -0.230484462375E+04   -0.90996E-02   -0.35909E+00  4460   0.771E-01    0.433E-01
RMM:   2    -0.230484801856E+04   -0.33948E-02   -0.33081E-02  4804   0.941E-02    0.368E-01
RMM:   3    -0.230484738140E+04    0.63716E-03   -0.49304E-03  5044   0.320E-02    0.308E-01
RMM:   4    -0.230484686851E+04    0.51289E-03   -0.18101E-03  4702   0.183E-02    0.191E-01
RMM:   5    -0.230484659940E+04    0.26912E-03   -0.58637E-04  4182   0.107E-02    0.959E-02
RMM:   6    -0.230484662134E+04   -0.21939E-04   -0.30244E-04  3278   0.838E-03    0.845E-02
RMM:   7    -0.230484655167E+04    0.69661E-04   -0.81369E-05  2948   0.571E-03    0.231E-02
RMM:   8    -0.230484655006E+04    0.16111E-05   -0.13695E-05  2758   0.280E-03
   4 F= -.23255506E+04 E0= -.23255506E+04  d E =-.105525E-10  mag=     6.0000
       N       E                     dE             d eps       ncg     rms          rms(c)
DAV:   1    -0.230483886511E+04    0.76866E-02   -0.73589E+00  4420   0.112E+00    0.622E-01
RMM:   2    -0.230484397719E+04   -0.51121E-02   -0.65584E-02  5227   0.129E-01    0.492E-01
RMM:   3    -0.230484357382E+04    0.40337E-03   -0.97532E-03  5603   0.449E-02    0.453E-01
RMM:   4    -0.230484243316E+04    0.11407E-02   -0.38054E-03  5376   0.256E-02    0.294E-01
RMM:   5    -0.230484184755E+04    0.58562E-03   -0.11363E-03  4524   0.146E-02    0.115E-01
RMM:   6    -0.230484187641E+04   -0.28862E-04   -0.53727E-04  3619   0.112E-02    0.111E-01
RMM:   7    -0.230484175726E+04    0.11915E-03   -0.16266E-04  3146   0.725E-03    0.351E-02
RMM:   8    -0.230484175148E+04    0.57741E-05   -0.25434E-05  2877   0.381E-03
   5 F= -.23255464E+04 E0= -.23255464E+04  d E =-.796564E-12  mag=     6.0000
       N       E                     dE             d eps       ncg     rms          rms(c)
DAV:   1    -0.230484870269E+04   -0.69454E-02   -0.36356E+00  4400   0.759E-01    0.374E-01
RMM:   2    -0.230485051581E+04   -0.18131E-02   -0.26251E-02  4705   0.782E-02    0.226E-01
RMM:   3    -0.230485034140E+04    0.17441E-03   -0.30467E-03  4545   0.278E-02    0.173E-01
RMM:   4    -0.230485037198E+04   -0.30576E-04   -0.11670E-03  4444   0.140E-02    0.193E-01
RMM:   5    -0.230485012733E+04    0.24465E-03   -0.44345E-04  3437   0.103E-02    0.688E-02
RMM:   6    -0.230485011851E+04    0.88109E-05   -0.95837E-05  3159   0.569E-03
   6 F= -.23255548E+04 E0= -.23255548E+04  d E =-.889851E-11  mag=     6.0000
       N       E                     dE             d eps       ncg     rms          rms(c)
DAV:   1    -0.230485360165E+04   -0.34743E-02   -0.64701E+00  4420   0.102E+00    0.566E-01
RMM:   2    -0.230485921204E+04   -0.56104E-02   -0.58386E-02  5125   0.115E-01    0.488E-01
RMM:   3    -0.230485776056E+04    0.14515E-02   -0.73769E-03  5300   0.365E-02    0.372E-01
RMM:   4    -0.230485777951E+04   -0.18942E-04   -0.32730E-03  5146   0.218E-02    0.317E-01
RMM:   5    -0.230485694364E+04    0.83586E-03   -0.10642E-03  4359   0.146E-02    0.687E-02
RMM:   6    -0.230485700386E+04   -0.60218E-04   -0.17261E-04  3137   0.676E-03    0.431E-02
RMM:   7    -0.230485701222E+04   -0.83536E-05   -0.54172E-05  2955   0.457E-03
   7 F= -.23255613E+04 E0= -.23255613E+04  d E =-.409958E-11  mag=     6.0000
       N       E                     dE             d eps       ncg     rms          rms(c)
DAV:   1    -0.230483827896E+04    0.18725E-01   -0.65720E+00  4480   0.109E+00    0.447E-01
RMM:   2    -0.230484922162E+04   -0.10943E-01   -0.11020E-01  5477   0.125E-01    0.372E-01
RMM:   3    -0.230484779701E+04    0.14246E-02   -0.87754E-03  5081   0.390E-02    0.285E-01
RMM:   4    -0.230484739127E+04    0.40573E-03   -0.22691E-03  4610   0.192E-02    0.199E-01
RMM:   5    -0.230484708092E+04    0.31035E-03   -0.65435E-04  3826   0.113E-02    0.974E-02
RMM:   6    -0.230484715546E+04   -0.74536E-04   -0.34187E-04  3446   0.899E-03    0.111E-01
RMM:   7    -0.230484704510E+04    0.11036E-03   -0.14274E-04  3074   0.680E-03    0.236E-02
RMM:   8    -0.230484704996E+04   -0.48656E-05   -0.22308E-05  2837   0.327E-03
   8 F= -.23255516E+04 E0= -.23255516E+04  d E =-.195292E-10  mag=     6.0000
       N       E                     dE             d eps       ncg     rms          rms(c)
DAV:   1    -0.230483612592E+04    0.10919E-01   -0.19528E+01  4440   0.177E+00    0.668E-01
RMM:   2    -0.230486064563E+04   -0.24520E-01   -0.21498E-01  5488   0.190E-01    0.750E-01
RMM:   3    -0.230485656195E+04    0.40837E-02   -0.18315E-02  5718   0.613E-02    0.483E-01
RMM:   4    -0.230485474541E+04    0.18165E-02   -0.39173E-03  4937   0.269E-02    0.216E-01
RMM:   5    -0.230485496011E+04   -0.21470E-03   -0.20341E-03  4745   0.200E-02    0.220E-01
RMM:   6    -0.230485454404E+04    0.41607E-03   -0.73969E-04  4273   0.134E-02    0.888E-02
RMM:   7    -0.230485450186E+04    0.42177E-04   -0.15456E-04  3308   0.682E-03    0.298E-02
RMM:   8    -0.230485451043E+04   -0.85688E-05   -0.26620E-05  2961   0.380E-03
   9 F= -.23255588E+04 E0= -.23255588E+04  d E =-.336079E-11  mag=     6.0000
       N       E                     dE             d eps       ncg     rms          rms(c)
DAV:   1    -0.230484490410E+04    0.95978E-02   -0.98111E+00  4440   0.133E+00    0.510E-01
RMM:   2    -0.230485625052E+04   -0.11346E-01   -0.11487E-01  5518   0.136E-01    0.388E-01
RMM:   3    -0.230485584169E+04    0.40883E-03   -0.90223E-03  5296   0.419E-02    0.363E-01
RMM:   4    -0.230485486126E+04    0.98044E-03   -0.26856E-03  5037   0.212E-02    0.205E-01
RMM:   5    -0.230485454682E+04    0.31444E-03   -0.78170E-04  3806   0.121E-02    0.100E-01
RMM:   6    -0.230485458004E+04   -0.33221E-04   -0.34287E-04  3447   0.920E-03    0.103E-01
RMM:   7    -0.230485448216E+04    0.97882E-04   -0.13419E-04  3140   0.650E-03    0.216E-02
RMM:   8    -0.230485448516E+04   -0.30012E-05   -0.17915E-05  2809   0.300E-03
  10 F= -.23255593E+04 E0= -.23255593E+04  d E =-.657814E-11  mag=     6.0000
       N       E                     dE             d eps       ncg     rms          rms(c)
DAV:   1    -0.230483677667E+04    0.17705E-01   -0.20021E+01  4440   0.179E+00    0.663E-01
RMM:   2    -0.230485515279E+04   -0.18376E-01   -0.18578E-01  5397   0.188E-01    0.478E-01
RMM:   3    -0.230485375251E+04    0.14003E-02   -0.14925E-02  5230   0.537E-02    0.393E-01
RMM:   4    -0.230485354737E+04    0.20515E-03   -0.42852E-03  5167   0.256E-02    0.332E-01
RMM:   5    -0.230485252846E+04    0.10189E-02   -0.11984E-03  4765   0.152E-02    0.983E-02
RMM:   6    -0.230485257025E+04   -0.41783E-04   -0.40829E-04  3607   0.101E-02    0.888E-02
RMM:   7    -0.230485248954E+04    0.80702E-04   -0.12984E-04  3082   0.666E-03    0.267E-02
RMM:   8    -0.230485248738E+04    0.21670E-05   -0.18516E-05  2855   0.312E-03
  11 F= -.23255565E+04 E0= -.23255565E+04  d E =-.632952E-11  mag=     6.0000
       N       E                     dE             d eps       ncg     rms          rms(c)
DAV:   1    -0.230483147985E+04    0.21010E-01   -0.99230E+00  4440   0.134E+00    0.488E-01
RMM:   2    -0.230484335753E+04   -0.11878E-01   -0.11110E-01  4719   0.137E-01    0.400E-01
RMM:   3    -0.230484271536E+04    0.64217E-03   -0.11372E-02  5038   0.530E-02    0.384E-01
RMM:   4    -0.230484159029E+04    0.11251E-02   -0.18848E-03  4622   0.182E-02    0.157E-01
RMM:   5    -0.230484160587E+04   -0.15583E-04   -0.79080E-04  3862   0.131E-02    0.128E-01
RMM:   6    -0.230484148896E+04    0.11692E-03   -0.42850E-04  3606   0.103E-02    0.785E-02
RMM:   7    -0.230484142223E+04    0.66724E-04   -0.62425E-05  3065   0.511E-03    0.197E-02
RMM:   8    -0.230484142327E+04   -0.10409E-05   -0.11367E-05  2698   0.244E-03
  12 F= -.23255460E+04 E0= -.23255460E+04  d E =-.364060E-11  mag=     6.0000
       N       E                     dE             d eps       ncg     rms          rms(c)
DAV:   1    -0.230482718175E+04    0.14240E-01   -0.19046E+01  4400   0.196E+00    0.766E-01
RMM:   2    -0.230485515854E+04   -0.27977E-01   -0.27427E-01  5132   0.194E-01    0.677E-01
RMM:   3    -0.230485402726E+04    0.11313E-02   -0.25993E-02  5462   0.734E-02    0.582E-01
RMM:   4    -0.230485074266E+04    0.32846E-02   -0.45776E-03  5271   0.284E-02    0.225E-01
RMM:   5    -0.230485106645E+04   -0.32379E-03   -0.25018E-03  4645   0.218E-02    0.267E-01
RMM:   6    -0.230485043857E+04    0.62788E-03   -0.10441E-03  4644   0.144E-02    0.986E-02
RMM:   7    -0.230485040677E+04    0.31800E-04   -0.98202E-05  3110   0.586E-03    0.343E-02
RMM:   8    -0.230485048479E+04   -0.78022E-04   -0.48432E-05  3040   0.400E-03    0.215E-02
RMM:   9    -0.230485054655E+04   -0.61764E-04   -0.17093E-05  2883   0.316E-03    0.129E-02
RMM:  10    -0.230485058523E+04   -0.38678E-04   -0.85478E-06  2693   0.249E-03    0.548E-03
RMM:  11    -0.230485061777E+04   -0.32535E-04   -0.72558E-06  2673   0.220E-03    0.367E-03
RMM:  12    -0.230485063105E+04   -0.13281E-04   -0.38213E-06  2582   0.207E-03    0.238E-03
RMM:  13    -0.230485063829E+04   -0.72453E-05   -0.27469E-06  2470   0.164E-03
  13 F= -.23255549E+04 E0= -.23255549E+04  d E =-.676926E-11  mag=     6.0000
