       N       E                     dE             d eps       ncg     rms          rms(c)
DAV:   1     0.120897310344E+05    0.12090E+05   -0.83185E+05  4640   0.140E+03
DAV:   2    -0.129486904684E+04   -0.13385E+05   -0.12878E+05  5120   0.318E+02
DAV:   3    -0.248908484650E+04   -0.11942E+04   -0.11848E+04  5440   0.101E+02
DAV:   4    -0.251417875904E+04   -0.25094E+02   -0.24976E+02  5760   0.175E+01
DAV:   5    -0.251480480266E+04   -0.62604E+00   -0.62502E+00  5760   0.245E+00    0.171E+02
RMM:   6    -0.147551170115E+04    0.10393E+04   -0.19013E+03  4498   0.377E+01    0.750E+01
RMM:   7    -0.165690179301E+04   -0.18139E+03   -0.29896E+02  5120   0.138E+01    0.602E+01
RMM:   8    -0.168204760148E+04   -0.25146E+02   -0.85347E+01  5290   0.819E+00    0.400E+01
RMM:   9    -0.176894036362E+04   -0.86893E+02   -0.45255E+01  4865   0.600E+00    0.343E+01
RMM:  10    -0.189728495344E+04   -0.12834E+03   -0.59995E+01  5272   0.705E+00    0.318E+01
RMM:  11    -0.197813215504E+04   -0.80847E+02   -0.38526E+01  5447   0.538E+00    0.179E+01
RMM:  12    -0.206494681096E+04   -0.86815E+02   -0.35978E+01  4791   0.464E+00    0.138E+01
RMM:  13    -0.219804146714E+04   -0.13309E+03   -0.97910E+01  4574   0.704E+00    0.152E+01
RMM:  14    -0.225374627253E+04   -0.55705E+02   -0.42003E+01  4793   0.474E+00    0.730E+00
RMM:  15    -0.228979473682E+04   -0.36048E+02   -0.30329E+01  4603   0.398E+00    0.469E+00
RMM:  16    -0.229886854027E+04   -0.90738E+01   -0.88995E+00  4817   0.254E+00    0.277E+00
RMM:  17    -0.230454696716E+04   -0.56784E+01   -0.47559E+00  4625   0.129E+00    0.178E+00
RMM:  18    -0.230604675738E+04   -0.14998E+01   -0.14067E+00  4755   0.938E-01    0.991E-01
RMM:  19    -0.230665614946E+04   -0.60939E+00   -0.55208E-01  4732   0.381E-01    0.579E-01
RMM:  20    -0.230675386030E+04   -0.97711E-01   -0.10116E-01  4834   0.247E-01    0.389E-01
RMM:  21    -0.230679130535E+04   -0.37445E-01   -0.26264E-02  4683   0.105E-01    0.200E-01
RMM:  22    -0.230681393136E+04   -0.22626E-01   -0.10391E-02  4629   0.886E-02    0.190E-01
RMM:  23    -0.230682590624E+04   -0.11975E-01   -0.48138E-03  4590   0.531E-02    0.105E-01
RMM:  24    -0.230683403140E+04   -0.81252E-02   -0.24447E-03  4572   0.404E-02    0.576E-02
RMM:  25    -0.230684103205E+04   -0.70007E-02   -0.20724E-03  4518   0.309E-02    0.368E-02
RMM:  26    -0.230684448123E+04   -0.34492E-02   -0.11173E-03  4431   0.266E-02    0.295E-02
RMM:  27    -0.230684576009E+04   -0.12789E-02   -0.46565E-04  4320   0.153E-02    0.161E-02
RMM:  28    -0.230684625094E+04   -0.49086E-03   -0.13292E-04  3811   0.101E-02    0.764E-03
RMM:  29    -0.230684645639E+04   -0.20544E-03   -0.54517E-05  3598   0.624E-03    0.433E-03
RMM:  30    -0.230684655085E+04   -0.94467E-04   -0.22608E-05  3185   0.486E-03    0.235E-03
RMM:  31    -0.230684658775E+04   -0.36896E-04   -0.11639E-05  2976   0.357E-03    0.151E-03
RMM:  32    -0.230684659992E+04   -0.12171E-04   -0.54761E-06  2801   0.279E-03    0.967E-04
RMM:  33    -0.230684660421E+04   -0.42865E-05   -0.29189E-06  2475   0.195E-03
   1 F= -.23272384E+04 E0= -.23272384E+04  d E =-.411995E-16  mag=     4.0000
       N       E                     dE             d eps       ncg     rms          rms(c)
DAV:   1    -0.230681012994E+04    0.36470E-01   -0.21307E+00  4480   0.650E-01    0.416E-01
RMM:   2    -0.230681096974E+04   -0.83980E-03   -0.15780E-02  4241   0.495E-02    0.329E-01
RMM:   3    -0.230681072860E+04    0.24114E-03   -0.35393E-03  4860   0.220E-02    0.322E-01
RMM:   4    -0.230680983837E+04    0.89023E-03   -0.15965E-03  4584   0.155E-02    0.104E-01
RMM:   5    -0.230680980147E+04    0.36897E-04   -0.26615E-04  3589   0.749E-03    0.402E-02
RMM:   6    -0.230680978614E+04    0.15331E-04   -0.41873E-05  2966   0.384E-03    0.129E-02
RMM:   7    -0.230680978713E+04   -0.98938E-06   -0.12082E-05  2805   0.226E-03
   2 F= -.23272018E+04 E0= -.23272018E+04  d E =-.147759E-17  mag=     4.0000
       N       E                     dE             d eps       ncg     rms          rms(c)
DAV:   1    -0.230683242925E+04   -0.22643E-01   -0.84578E+00  4480   0.126E+00    0.820E-01
RMM:   2    -0.230683570435E+04   -0.32751E-02   -0.57327E-02  4441   0.996E-02    0.636E-01
RMM:   3    -0.230683438812E+04    0.13162E-02   -0.12413E-02  5637   0.434E-02    0.608E-01
RMM:   4    -0.230683117685E+04    0.32113E-02   -0.61723E-03  5363   0.306E-02    0.197E-01
RMM:   5    -0.230683102132E+04    0.15553E-03   -0.87455E-04  4091   0.138E-02    0.706E-02
RMM:   6    -0.230683099178E+04    0.29543E-04   -0.12388E-04  3313   0.628E-03    0.275E-02
RMM:   7    -0.230683099604E+04   -0.42631E-05   -0.48032E-05  3254   0.385E-03
   3 F= -.23272226E+04 E0= -.23272226E+04  d E =-.118630E-17  mag=     4.0000
       N       E                     dE             d eps       ncg     rms          rms(c)
DAV:   1    -0.230686713894E+04   -0.36147E-01   -0.37804E+00  4480   0.778E-01    0.433E-01
RMM:   2    -0.230686760038E+04   -0.46144E-03   -0.14799E-02  4290   0.479E-02    0.313E-01
RMM:   3    -0.230686759307E+04    0.73146E-05   -0.31840E-03  4897   0.226E-02    0.315E-01
RMM:   4    -0.230686702029E+04    0.57278E-03   -0.17844E-03  4635   0.173E-02    0.152E-01
RMM:   5    -0.230686690841E+04    0.11188E-03   -0.37466E-04  3505   0.931E-03    0.574E-02
RMM:   6    -0.230686691744E+04   -0.90279E-05   -0.77091E-05  3195   0.506E-03
   4 F= -.23272584E+04 E0= -.23272584E+04  d E =-.312400E-17  mag=     4.0000
       N       E                     dE             d eps       ncg     rms          rms(c)
DAV:   1    -0.230681916406E+04    0.47744E-01   -0.72318E+00  4480   0.991E-01    0.568E-01
RMM:   2    -0.230682003654E+04   -0.87248E-03   -0.21921E-02  4460   0.619E-02    0.370E-01
RMM:   3    -0.230682066480E+04   -0.62826E-03   -0.49118E-03  5043   0.297E-02    0.418E-01
RMM:   4    -0.230681942093E+04    0.12439E-02   -0.28627E-03  4953   0.209E-02    0.199E-01
RMM:   5    -0.230681935591E+04    0.65026E-04   -0.56064E-04  3881   0.103E-02    0.888E-02
RMM:   6    -0.230681937499E+04   -0.19077E-04   -0.15938E-04  3129   0.738E-03    0.432E-02
RMM:   7    -0.230681938689E+04   -0.11902E-04   -0.47472E-05  2985   0.424E-03    0.174E-02
RMM:   8    -0.230681939145E+04   -0.45668E-05   -0.10450E-05  2839   0.277E-03
   5 F= -.23272115E+04 E0= -.23272115E+04  d E =-.112867E-16  mag=     4.0000
       N       E                     dE             d eps       ncg     rms          rms(c)
DAV:   1    -0.230685834207E+04   -0.38955E-01   -0.36239E+00  4640   0.717E-01    0.462E-01
RMM:   2    -0.230685858100E+04   -0.23893E-03   -0.19850E-02  4753   0.500E-02    0.403E-01
RMM:   3    -0.230685722222E+04    0.13588E-02   -0.35753E-03  4234   0.320E-02    0.255E-01
RMM:   4    -0.230685718206E+04    0.40168E-04   -0.19673E-03  4538   0.178E-02    0.206E-01
RMM:   5    -0.230685686744E+04    0.31461E-03   -0.72583E-04  3972   0.123E-02    0.759E-02
RMM:   6    -0.230685684285E+04    0.24598E-04   -0.89747E-05  3146   0.531E-03    0.330E-02
RMM:   7    -0.230685684525E+04   -0.24066E-05   -0.26679E-05  2975   0.354E-03
   6 F= -.23272496E+04 E0= -.23272496E+04  d E =-.748538E-15  mag=     4.0000
       N       E                     dE             d eps       ncg     rms          rms(c)
DAV:   1    -0.230685339778E+04    0.34451E-02   -0.71309E+00  4480   0.103E+00    0.770E-01
RMM:   2    -0.230685191993E+04    0.14779E-02   -0.69854E-02  5298   0.867E-02    0.706E-01
RMM:   3    -0.230684515896E+04    0.67610E-02   -0.92267E-03  4841   0.442E-02    0.284E-01
RMM:   4    -0.230684548908E+04   -0.33012E-03   -0.47456E-03  4987   0.262E-02    0.304E-01
RMM:   5    -0.230684490765E+04    0.58144E-03   -0.27635E-03  4981   0.207E-02    0.167E-01
RMM:   6    -0.230684456189E+04    0.34575E-03   -0.23503E-04  3415   0.800E-03    0.433E-02
RMM:   7    -0.230684455011E+04    0.11787E-04   -0.87177E-05  3223   0.540E-03    0.250E-02
RMM:   8    -0.230684454380E+04    0.63089E-05   -0.23012E-05  2964   0.416E-03
   7 F= -.23272354E+04 E0= -.23272354E+04  d E =-.388493E-15  mag=     4.0000
       N       E                     dE             d eps       ncg     rms          rms(c)
DAV:   1    -0.230685784950E+04   -0.13299E-01   -0.68319E+00  4480   0.940E-01    0.722E-01
RMM:   2    -0.230685920063E+04   -0.13511E-02   -0.11011E-01  4901   0.898E-02    0.566E-01
RMM:   3    -0.230685366030E+04    0.55403E-02   -0.77438E-03  4705   0.396E-02    0.193E-01
RMM:   4    -0.230685349098E+04    0.16932E-03   -0.30447E-03  4014   0.178E-02    0.142E-01
RMM:   5    -0.230685352168E+04   -0.30704E-04   -0.11616E-03  4095   0.148E-02    0.138E-01
RMM:   6    -0.230685332057E+04    0.20112E-03   -0.22917E-04  3262   0.789E-03    0.282E-02
RMM:   7    -0.230685331870E+04    0.18624E-05   -0.35753E-05  2974   0.344E-03
   8 F= -.23272448E+04 E0= -.23272448E+04  d E =-.352454E-18  mag=     4.0000
       N       E                     dE             d eps       ncg     rms          rms(c)
DAV:   1    -0.230682146265E+04    0.31858E-01   -0.20179E+01  4480   0.146E+00    0.960E-01
RMM:   2    -0.230682820271E+04   -0.67401E-02   -0.20460E-01  4240   0.113E-01    0.609E-01
RMM:   3    -0.230682049149E+04    0.77112E-02   -0.13095E-02  5133   0.450E-02    0.254E-01
RMM:   4    -0.230682027394E+04    0.21755E-03   -0.47584E-03  4410   0.207E-02    0.172E-01
RMM:   5    -0.230682019740E+04    0.76544E-04   -0.13049E-03  4090   0.164E-02    0.165E-01
RMM:   6    -0.230681993760E+04    0.25980E-03   -0.32867E-04  3468   0.771E-03    0.359E-02
RMM:   7    -0.230681993157E+04    0.60230E-05   -0.10177E-04  3028   0.411E-03    0.180E-02
RMM:   8    -0.230681993162E+04   -0.49549E-07   -0.19665E-05  2884   0.327E-03
   9 F= -.23272121E+04 E0= -.23272121E+04  d E =-.343557E-14  mag=     4.0000
       N       E                     dE             d eps       ncg     rms          rms(c)
DAV:   1    -0.230685304281E+04   -0.33111E-01   -0.10072E+01  4320   0.115E+00    0.890E-01
RMM:   2    -0.230685080822E+04    0.22346E-02   -0.11386E-01  4305   0.910E-02    0.545E-01
RMM:   3    -0.230684497935E+04    0.58289E-02   -0.10629E-02  5069   0.394E-02    0.213E-01
RMM:   4    -0.230684483375E+04    0.14560E-03   -0.29400E-03  4005   0.166E-02    0.125E-01
RMM:   5    -0.230684486885E+04   -0.35100E-04   -0.77326E-04  3717   0.130E-02    0.126E-01
RMM:   6    -0.230684471446E+04    0.15439E-03   -0.19798E-04  3180   0.666E-03    0.293E-02
RMM:   7    -0.230684470575E+04    0.87037E-05   -0.53906E-05  2829   0.312E-03
  10 F= -.23272365E+04 E0= -.23272365E+04  d E =-.163019E-16  mag=     4.0000
       N       E                     dE             d eps       ncg     rms          rms(c)
DAV:   1    -0.230683837614E+04    0.63383E-02   -0.20263E+01  4480   0.143E+00    0.999E-01
RMM:   2    -0.230684063229E+04   -0.22561E-02   -0.16930E-01  4208   0.108E-01    0.602E-01
RMM:   3    -0.230683332821E+04    0.73041E-02   -0.11879E-02  5121   0.426E-02    0.251E-01
RMM:   4    -0.230683302408E+04    0.30412E-03   -0.45753E-03  4062   0.199E-02    0.134E-01
RMM:   5    -0.230683285943E+04    0.16465E-03   -0.76070E-04  3634   0.141E-02    0.562E-02
RMM:   6    -0.230683284633E+04    0.13105E-04   -0.16592E-04  3197   0.585E-03    0.450E-02
RMM:   7    -0.230683282971E+04    0.16621E-04   -0.63162E-05  3028   0.416E-03    0.215E-02
RMM:   8    -0.230683282878E+04    0.92597E-06   -0.23325E-05  2926   0.294E-03
  11 F= -.23272246E+04 E0= -.23272246E+04  d E =-.103320E-15  mag=     4.0000
       N       E                     dE             d eps       ncg     rms          rms(c)
DAV:   1    -0.230682849741E+04    0.43323E-02   -0.10155E+01  4320   0.974E-01    0.395E-01
RMM:   2    -0.230683204274E+04   -0.35453E-02   -0.53316E-02  3931   0.531E-02    0.217E-01
RMM:   3    -0.230683138268E+04    0.66005E-03   -0.24190E-03  4905   0.185E-02    0.214E-01
RMM:   4    -0.230683098463E+04    0.39805E-03   -0.11794E-03  3863   0.135E-02    0.125E-01
RMM:   5    -0.230683082050E+04    0.16413E-03   -0.30210E-04  3585   0.776E-03    0.284E-02
RMM:   6    -0.230683081433E+04    0.61659E-05   -0.49290E-05  2916   0.511E-03
  12 F= -.23272219E+04 E0= -.23272219E+04  d E =-.439696E-13  mag=     4.0000
       N       E                     dE             d eps       ncg     rms          rms(c)
DAV:   1    -0.230685453399E+04   -0.23713E-01   -0.19824E+01  4480   0.148E+00    0.763E-01
RMM:   2    -0.230686122289E+04   -0.66889E-02   -0.17842E-01  5070   0.106E-01    0.583E-01
RMM:   3    -0.230685595618E+04    0.52667E-02   -0.99737E-03  4960   0.423E-02    0.283E-01
RMM:   4    -0.230685632548E+04   -0.36931E-03   -0.56347E-03  4876   0.269E-02    0.382E-01
RMM:   5    -0.230685459371E+04    0.17318E-02   -0.21002E-03  4976   0.191E-02    0.699E-02
RMM:   6    -0.230685456039E+04    0.33317E-04   -0.25890E-04  3280   0.686E-03    0.393E-02
RMM:   7    -0.230685454810E+04    0.12299E-04   -0.46134E-05  3043   0.466E-03    0.214E-02
RMM:   8    -0.230685454538E+04    0.27126E-05   -0.23468E-05  2991   0.386E-03
  13 F= -.23272473E+04 E0= -.23272473E+04  d E =-.813646E-17  mag=     4.0000
       N       E                     dE             d eps       ncg     rms          rms(c)
DAV:   1    -0.230682341826E+04    0.31130E-01   -0.52631E+00  4480   0.794E-01    0.496E-01
RMM:   2    -0.230682714899E+04   -0.37307E-02   -0.71304E-02  5034   0.733E-02    0.435E-01
RMM:   3    -0.230682451682E+04    0.26322E-02   -0.48912E-03  4631   0.310E-02    0.276E-01
RMM:   4    -0.230682402643E+04    0.49039E-03   -0.18749E-03  4307   0.158E-02    0.195E-01
RMM:   5    -0.230682356571E+04    0.46072E-03   -0.93410E-04  3749   0.117E-02    0.353E-02
RMM:   6    -0.230682355656E+04    0.91463E-05   -0.96392E-05  3071   0.738E-03
  14 F= -.23272161E+04 E0= -.23272161E+04  d E =-.826682E-16  mag=     4.0000
       N       E                     dE             d eps       ncg     rms          rms(c)
DAV:   1    -0.230685003405E+04   -0.26468E-01   -0.12714E+00  4960   0.461E-01    0.643E-01
RMM:   2    -0.230684676123E+04    0.32728E-02   -0.28668E-02  5304   0.622E-02    0.517E-01
RMM:   3    -0.230684456652E+04    0.21947E-02   -0.79780E-03  4824   0.385E-02    0.442E-01
RMM:   4    -0.230684289243E+04    0.16741E-02   -0.30342E-03  4996   0.201E-02    0.217E-01
RMM:   5    -0.230684252764E+04    0.36479E-03   -0.98462E-04  3921   0.118E-02    0.607E-02
RMM:   6    -0.230684248749E+04    0.40153E-04   -0.14364E-04  3253   0.607E-03    0.169E-02
RMM:   7    -0.230684248406E+04    0.34338E-05   -0.31358E-05  2878   0.354E-03
  15 F= -.23272335E+04 E0= -.23272335E+04  d E =-.399957E-16  mag=     4.0000
       N       E                     dE             d eps       ncg     rms          rms(c)
DAV:   1    -0.230684127800E+04    0.12095E-02   -0.61270E-01  4960   0.290E-01    0.366E-01
RMM:   2    -0.230684036381E+04    0.91420E-03   -0.63671E-03  4564   0.300E-02    0.256E-01
RMM:   3    -0.230684018908E+04    0.17473E-03   -0.22074E-03  4285   0.196E-02    0.255E-01
RMM:   4    -0.230683967946E+04    0.50962E-03   -0.11081E-03  4193   0.129E-02    0.137E-01
RMM:   5    -0.230683952461E+04    0.15486E-03   -0.28253E-04  3457   0.757E-03    0.296E-02
RMM:   6    -0.230683951580E+04    0.88055E-05   -0.37784E-05  2903   0.368E-03
  16 F= -.23272311E+04 E0= -.23272311E+04  d E =-.345318E-16  mag=     4.0000
       N       E                     dE             d eps       ncg     rms          rms(c)
DAV:   1    -0.230685293439E+04   -0.13410E-01   -0.11801E+00  4480   0.410E-01    0.402E-01
RMM:   2    -0.230685231317E+04    0.62123E-03   -0.45909E-03  4239   0.272E-02    0.240E-01
RMM:   3    -0.230685270180E+04   -0.38864E-03   -0.20619E-03  4667   0.173E-02    0.274E-01
RMM:   4    -0.230685199706E+04    0.70474E-03   -0.13068E-03  4074   0.153E-02    0.121E-01
RMM:   5    -0.230685186891E+04    0.12815E-03   -0.20107E-04  3449   0.670E-03    0.198E-02
RMM:   6    -0.230685186499E+04    0.39213E-05   -0.20417E-05  2869   0.309E-03
  17 F= -.23272439E+04 E0= -.23272439E+04  d E =-.856668E-16  mag=     4.0000
       N       E                     dE             d eps       ncg     rms          rms(c)
DAV:   1    -0.230684242252E+04    0.94464E-02   -0.58539E-01  4640   0.297E-01    0.263E-01
RMM:   2    -0.230684234456E+04    0.77961E-04   -0.24116E-03  3894   0.192E-02    0.164E-01
RMM:   3    -0.230684276452E+04   -0.41996E-03   -0.12279E-03  4285   0.124E-02    0.241E-01
RMM:   4    -0.230684219648E+04    0.56804E-03   -0.57131E-04  3579   0.108E-02    0.353E-02
RMM:   5    -0.230684219260E+04    0.38748E-05   -0.68210E-05  2949   0.376E-03
  18 F= -.23272342E+04 E0= -.23272342E+04  d E =-.660700E-16  mag=     4.0000
       N       E                     dE             d eps       ncg     rms          rms(c)
DAV:   1    -0.230684898542E+04   -0.67889E-02   -0.11588E+00  4480   0.412E-01    0.354E-01
RMM:   2    -0.230684888769E+04    0.97723E-04   -0.43084E-03  3956   0.260E-02    0.222E-01
RMM:   3    -0.230684910952E+04   -0.22182E-03   -0.17743E-03  4529   0.150E-02    0.230E-01
RMM:   4    -0.230684885194E+04    0.25757E-03   -0.98736E-04  3900   0.131E-02    0.119E-01
RMM:   5    -0.230684869256E+04    0.15938E-03   -0.21877E-04  3475   0.767E-03    0.300E-02
RMM:   6    -0.230684868641E+04    0.61500E-05   -0.31646E-05  2849   0.307E-03
  19 F= -.23272402E+04 E0= -.23272402E+04  d E =-.679565E-16  mag=     4.0000
       N       E                     dE             d eps       ncg     rms          rms(c)
DAV:   1    -0.230681942241E+04    0.29270E-01   -0.56989E-01  5120   0.316E-01    0.396E-01
RMM:   2    -0.230681902059E+04    0.40182E-03   -0.17707E-02  4006   0.387E-02    0.281E-01
RMM:   3    -0.230681783878E+04    0.11818E-02   -0.19008E-03  3814   0.189E-02    0.124E-01
RMM:   4    -0.230681786921E+04   -0.30428E-04   -0.56688E-04  3480   0.847E-03    0.669E-02
RMM:   5    -0.230681786964E+04   -0.42710E-06   -0.14758E-04  3086   0.628E-03    0.529E-02
RMM:   6    -0.230681784152E+04    0.28117E-04   -0.32255E-05  2742   0.345E-03    0.135E-02
RMM:   7    -0.230681784059E+04    0.92744E-06   -0.12370E-05  2450   0.187E-03
  20 F= -.23272097E+04 E0= -.23272097E+04  d E =-.630257E-16  mag=     4.0000
       N       E                     dE             d eps       ncg     rms          rms(c)
DAV:   1    -0.230686292686E+04   -0.45085E-01   -0.11388E+00  4800   0.429E-01    0.658E-01
RMM:   2    -0.230686060065E+04    0.23262E-02   -0.46813E-02  4111   0.582E-02    0.456E-01
RMM:   3    -0.230685762939E+04    0.29713E-02   -0.49224E-03  4587   0.278E-02    0.203E-01
RMM:   4    -0.230685809852E+04   -0.46912E-03   -0.16678E-03  4107   0.160E-02    0.226E-01
RMM:   5    -0.230685765332E+04    0.44520E-03   -0.88383E-04  3713   0.124E-02    0.972E-02
RMM:   6    -0.230685757677E+04    0.76551E-04   -0.12706E-04  3179   0.536E-03    0.191E-02
RMM:   7    -0.230685757637E+04    0.40590E-06   -0.25992E-05  2646   0.271E-03
  21 F= -.23272493E+04 E0= -.23272493E+04  d E =-.705706E-16  mag=     4.0000
       N       E                     dE             d eps       ncg     rms          rms(c)
DAV:   1    -0.230683215292E+04    0.25424E-01   -0.58779E-01  4800   0.311E-01    0.637E-01
RMM:   2    -0.230682995652E+04    0.21964E-02   -0.50004E-02  4063   0.583E-02    0.458E-01
RMM:   3    -0.230682642249E+04    0.35340E-02   -0.51144E-03  4302   0.313E-02    0.175E-01
RMM:   4    -0.230682635645E+04    0.66036E-04   -0.15706E-03  3787   0.124E-02    0.894E-02
RMM:   5    -0.230682627520E+04    0.81249E-04   -0.18716E-04  3147   0.700E-03    0.342E-02
RMM:   6    -0.230682626498E+04    0.10228E-04   -0.62239E-05  2769   0.333E-03    0.208E-02
RMM:   7    -0.230682626062E+04    0.43550E-05   -0.97273E-06  2316   0.208E-03
  22 F= -.23272184E+04 E0= -.23272184E+04  d E =-.169252E-15  mag=     4.0000
       N       E                     dE             d eps       ncg     rms          rms(c)
DAV:   1    -0.230685620054E+04   -0.29936E-01   -0.11353E+00  4880   0.426E-01    0.631E-01
RMM:   2    -0.230685413451E+04    0.20660E-02   -0.41465E-02  3926   0.553E-02    0.432E-01
RMM:   3    -0.230685153683E+04    0.25977E-02   -0.41351E-03  4115   0.272E-02    0.192E-01
RMM:   4    -0.230685171362E+04   -0.17679E-03   -0.12466E-03  3847   0.130E-02    0.157E-01
RMM:   5    -0.230685168201E+04    0.31606E-04   -0.65144E-04  3581   0.115E-02    0.111E-01
RMM:   6    -0.230685154348E+04    0.13853E-03   -0.11565E-04  3037   0.606E-03    0.189E-02
RMM:   7    -0.230685154346E+04    0.22395E-07   -0.36629E-05  2695   0.262E-03
  23 F= -.23272430E+04 E0= -.23272430E+04  d E =-.252646E-16  mag=     4.0000
       N       E                     dE             d eps       ncg     rms          rms(c)
DAV:   1    -0.230686251623E+04   -0.10973E-01   -0.55143E-01  4320   0.283E-01    0.283E-01
RMM:   2    -0.230686279843E+04   -0.28220E-03   -0.75567E-03  3602   0.270E-02    0.191E-01
RMM:   3    -0.230686255289E+04    0.24554E-03   -0.75693E-04  3235   0.112E-02    0.106E-01
RMM:   4    -0.230686274610E+04   -0.19322E-03   -0.37713E-04  3373   0.801E-03    0.113E-01
RMM:   5    -0.230686266701E+04    0.79095E-04   -0.19551E-04  3216   0.701E-03    0.437E-02
RMM:   6    -0.230686264636E+04    0.20643E-04   -0.24337E-05  2708   0.320E-03    0.927E-03
RMM:   7    -0.230686264757E+04   -0.12086E-05   -0.95038E-06  2500   0.182E-03
  24 F= -.23272544E+04 E0= -.23272544E+04  d E =-.199680E-15  mag=     4.0000
       N       E                     dE             d eps       ncg     rms          rms(c)
DAV:   1    -0.230682470465E+04    0.37942E-01   -0.10921E+00  4640   0.406E-01    0.374E-01
RMM:   2    -0.230682517441E+04   -0.46976E-03   -0.11076E-02  3562   0.325E-02    0.232E-01
RMM:   3    -0.230682490805E+04    0.26636E-03   -0.10362E-03  3772   0.121E-02    0.136E-01
RMM:   4    -0.230682506017E+04   -0.15212E-03   -0.43337E-04  3547   0.988E-03    0.730E-02
RMM:   5    -0.230682504812E+04    0.12048E-04   -0.17250E-04  3072   0.636E-03    0.614E-02
RMM:   6    -0.230682501236E+04    0.35760E-04   -0.37535E-05  2703   0.358E-03    0.125E-02
RMM:   7    -0.230682501539E+04   -0.30307E-05   -0.80164E-06  2644   0.189E-03
  25 F= -.23272169E+04 E0= -.23272169E+04  d E =-.213267E-16  mag=     4.0000
