       N       E                     dE             d eps       ncg     rms          rms(c)
DAV:   1     0.121554380332E+05    0.12155E+05   -0.83531E+05  4640   0.141E+03
DAV:   2    -0.129246319395E+04   -0.13448E+05   -0.12944E+05  5200   0.319E+02
DAV:   3    -0.249314610428E+04   -0.12007E+04   -0.11914E+04  5440   0.101E+02
DAV:   4    -0.251840645746E+04   -0.25260E+02   -0.25145E+02  5760   0.175E+01
DAV:   5    -0.251903590752E+04   -0.62945E+00   -0.62840E+00  5840   0.246E+00    0.171E+02
RMM:   6    -0.147975770495E+04    0.10393E+04   -0.18874E+03  4501   0.376E+01    0.729E+01
RMM:   7    -0.164425043990E+04   -0.16449E+03   -0.28315E+02  5045   0.135E+01    0.513E+01
RMM:   8    -0.169386026881E+04   -0.49610E+02   -0.46611E+01  5267   0.694E+00    0.367E+01
RMM:   9    -0.182661425442E+04   -0.13275E+03   -0.60883E+01  4812   0.767E+00    0.351E+01
RMM:  10    -0.192100915718E+04   -0.94395E+02   -0.42243E+01  5109   0.612E+00    0.245E+01
RMM:  11    -0.201156420676E+04   -0.90555E+02   -0.35503E+01  5147   0.499E+00    0.175E+01
RMM:  12    -0.208992470340E+04   -0.78360E+02   -0.32710E+01  4807   0.436E+00    0.130E+01
RMM:  13    -0.222580396377E+04   -0.13588E+03   -0.11076E+02  4553   0.732E+00    0.153E+01
RMM:  14    -0.228633139970E+04   -0.60527E+02   -0.56463E+01  4774   0.533E+00    0.860E+00
RMM:  15    -0.230188108447E+04   -0.15550E+02   -0.18288E+01  4979   0.334E+00    0.521E+00
RMM:  16    -0.230596529337E+04   -0.40842E+01   -0.47700E+00  5230   0.142E+00    0.305E+00
RMM:  17    -0.230821245471E+04   -0.22472E+01   -0.15499E+00  4726   0.893E-01    0.176E+00
RMM:  18    -0.230945649159E+04   -0.12440E+01   -0.64555E-01  4797   0.568E-01    0.107E+00
RMM:  19    -0.230983783748E+04   -0.38135E+00   -0.19709E-01  4958   0.324E-01    0.813E-01
RMM:  20    -0.230988189606E+04   -0.44059E-01   -0.34844E-02  5036   0.158E-01    0.488E-01
RMM:  21    -0.230993109603E+04   -0.49200E-01   -0.18444E-02  4567   0.105E-01    0.238E-01
RMM:  22    -0.230994886097E+04   -0.17765E-01   -0.64871E-03  4624   0.715E-02    0.154E-01
RMM:  23    -0.230996003066E+04   -0.11170E-01   -0.41159E-03  4566   0.529E-02    0.806E-02
RMM:  24    -0.230997256410E+04   -0.12533E-01   -0.46976E-03  4516   0.531E-02    0.910E-02
RMM:  25    -0.230997684416E+04   -0.42801E-02   -0.15015E-03  4791   0.376E-02    0.563E-02
RMM:  26    -0.230997906883E+04   -0.22247E-02   -0.69339E-04  4208   0.188E-02    0.298E-02
RMM:  27    -0.230998070459E+04   -0.16358E-02   -0.39866E-04  4039   0.190E-02    0.169E-02
RMM:  28    -0.230998154718E+04   -0.84259E-03   -0.29114E-04  4038   0.128E-02    0.795E-03
RMM:  29    -0.230998177780E+04   -0.23062E-03   -0.88598E-05  3736   0.107E-02    0.428E-03
RMM:  30    -0.230998184879E+04   -0.70986E-04   -0.31816E-05  3417   0.494E-03    0.305E-03
RMM:  31    -0.230998188886E+04   -0.40076E-04   -0.10753E-05  2950   0.428E-03    0.192E-03
RMM:  32    -0.230998190616E+04   -0.17300E-04   -0.64768E-06  2904   0.255E-03    0.108E-03
RMM:  33    -0.230998191079E+04   -0.46259E-05   -0.28782E-06  2491   0.210E-03
   1 F= -.23304228E+04 E0= -.23304228E+04  d E =-.148806E-09  mag=     3.0000
       N       E                     dE             d eps       ncg     rms          rms(c)
DAV:   1    -0.230994604798E+04    0.35858E-01   -0.20001E+00  4480   0.541E-01    0.397E-01
RMM:   2    -0.230994639493E+04   -0.34695E-03   -0.26478E-02  4945   0.552E-02    0.324E-01
RMM:   3    -0.230994526276E+04    0.11322E-02   -0.42784E-03  4808   0.305E-02    0.247E-01
RMM:   4    -0.230994441601E+04    0.84674E-03   -0.16483E-03  4674   0.193E-02    0.130E-01
RMM:   5    -0.230994420588E+04    0.21014E-03   -0.57052E-04  4319   0.126E-02    0.458E-02
RMM:   6    -0.230994417181E+04    0.34070E-04   -0.77526E-05  3211   0.517E-03    0.198E-02
RMM:   7    -0.230994416892E+04    0.28831E-05   -0.19464E-05  3001   0.348E-03
   2 F= -.23303849E+04 E0= -.23303849E+04  d E =-.166141E-08  mag=     3.0000
       N       E                     dE             d eps       ncg     rms          rms(c)
DAV:   1    -0.230998104400E+04   -0.36872E-01   -0.78704E+00  4480   0.106E+00    0.781E-01
RMM:   2    -0.230998356660E+04   -0.25226E-02   -0.11472E-01  5043   0.115E-01    0.603E-01
RMM:   3    -0.230997876163E+04    0.48050E-02   -0.15674E-02  5444   0.580E-02    0.445E-01
RMM:   4    -0.230997585687E+04    0.29048E-02   -0.54136E-03  5046   0.353E-02    0.242E-01
RMM:   5    -0.230997514719E+04    0.70968E-03   -0.20425E-03  5060   0.238E-02    0.102E-01
RMM:   6    -0.230997501502E+04    0.13218E-03   -0.31091E-04  3860   0.902E-03    0.383E-02
RMM:   7    -0.230997505424E+04   -0.39221E-04   -0.80134E-05  3287   0.565E-03    0.179E-02
RMM:   8    -0.230997510730E+04   -0.53063E-04   -0.25118E-05  3031   0.438E-03    0.940E-03
RMM:   9    -0.230997515936E+04   -0.52062E-04   -0.17066E-05  2956   0.373E-03    0.542E-03
RMM:  10    -0.230997518551E+04   -0.26144E-04   -0.95458E-06  2866   0.315E-03    0.384E-03
RMM:  11    -0.230997520295E+04   -0.17440E-04   -0.77809E-06  2831   0.261E-03    0.228E-03
RMM:  12    -0.230997521052E+04   -0.75712E-05   -0.42340E-06  2721   0.235E-03
   3 F= -.23304163E+04 E0= -.23304163E+04  d E =-.152324E-10  mag=     3.0000
       N       E                     dE             d eps       ncg     rms          rms(c)
DAV:   1    -0.231000290660E+04   -0.27704E-01   -0.37923E+00  4640   0.835E-01    0.451E-01
RMM:   2    -0.231000239622E+04    0.51038E-03   -0.24275E-02  4876   0.605E-02    0.311E-01
RMM:   3    -0.231000175557E+04    0.64065E-03   -0.47084E-03  4924   0.329E-02    0.256E-01
RMM:   4    -0.231000083944E+04    0.91613E-03   -0.16041E-03  4813   0.187E-02    0.132E-01
RMM:   5    -0.231000065444E+04    0.18500E-03   -0.51594E-04  4173   0.117E-02    0.511E-02
RMM:   6    -0.231000062092E+04    0.33525E-04   -0.80545E-05  3231   0.506E-03    0.217E-02
RMM:   7    -0.231000061728E+04    0.36351E-05   -0.20789E-05  2960   0.364E-03
   4 F= -.23304415E+04 E0= -.23304415E+04  d E =-.159750E-09  mag=     3.0000
       N       E                     dE             d eps       ncg     rms          rms(c)
DAV:   1    -0.230996003771E+04    0.40583E-01   -0.73372E+00  4480   0.105E+00    0.539E-01
RMM:   2    -0.230995845874E+04    0.15790E-02   -0.24430E-02  4379   0.606E-02    0.267E-01
RMM:   3    -0.230995772162E+04    0.73712E-03   -0.30983E-03  4503   0.302E-02    0.162E-01
RMM:   4    -0.230995755889E+04    0.16273E-03   -0.96972E-04  4407   0.132E-02    0.916E-02
RMM:   5    -0.230995748703E+04    0.71867E-04   -0.15112E-04  3223   0.711E-03    0.301E-02
RMM:   6    -0.230995749641E+04   -0.93828E-05   -0.46855E-05  3017   0.426E-03
   5 F= -.23303984E+04 E0= -.23303984E+04  d E =-.141361E-09  mag=     3.0000
       N       E                     dE             d eps       ncg     rms          rms(c)
DAV:   1    -0.230994996816E+04    0.75189E-02   -0.36383E+00  4480   0.741E-01    0.411E-01
RMM:   2    -0.230995000562E+04   -0.37467E-04   -0.19977E-02  4637   0.546E-02    0.332E-01
RMM:   3    -0.230994890616E+04    0.10995E-02   -0.36089E-03  5127   0.272E-02    0.222E-01
RMM:   4    -0.230994842386E+04    0.48230E-03   -0.13499E-03  4793   0.164E-02    0.124E-01
RMM:   5    -0.230994824722E+04    0.17664E-03   -0.42107E-04  3891   0.104E-02    0.412E-02
RMM:   6    -0.230994823659E+04    0.10627E-04   -0.59422E-05  3090   0.457E-03    0.191E-02
RMM:   7    -0.230994823725E+04   -0.65840E-06   -0.14285E-05  2899   0.314E-03
   6 F= -.23303887E+04 E0= -.23303887E+04  d E =-.347720E-09  mag=     3.0000
       N       E                     dE             d eps       ncg     rms          rms(c)
DAV:   1    -0.231000842944E+04   -0.60193E-01   -0.72291E+00  4480   0.105E+00    0.584E-01
RMM:   2    -0.231000969265E+04   -0.12632E-02   -0.46051E-02  4832   0.800E-02    0.568E-01
RMM:   3    -0.231000557013E+04    0.41225E-02   -0.81400E-03  5584   0.414E-02    0.289E-01
RMM:   4    -0.231000491287E+04    0.65726E-03   -0.26634E-03  4903   0.229E-02    0.191E-01
RMM:   5    -0.231000446192E+04    0.45094E-03   -0.11867E-03  4805   0.170E-02    0.735E-02
RMM:   6    -0.231000439805E+04    0.63873E-04   -0.15224E-04  3345   0.668E-03    0.296E-02
RMM:   7    -0.231000439314E+04    0.49126E-05   -0.32101E-05  2976   0.435E-03
   7 F= -.23304458E+04 E0= -.23304458E+04  d E =-.728864E-10  mag=     3.0000
       N       E                     dE             d eps       ncg     rms          rms(c)
DAV:   1    -0.230996961702E+04    0.34781E-01   -0.74728E+00  4480   0.108E+00    0.555E-01
RMM:   2    -0.230997341407E+04   -0.37970E-02   -0.88775E-02  4147   0.959E-02    0.325E-01
RMM:   3    -0.230997172219E+04    0.16919E-02   -0.63324E-03  5438   0.375E-02    0.255E-01
RMM:   4    -0.230997079213E+04    0.93006E-03   -0.29502E-03  4719   0.231E-02    0.127E-01
RMM:   5    -0.230997058756E+04    0.20457E-03   -0.73817E-04  4379   0.151E-02    0.915E-02
RMM:   6    -0.230997048580E+04    0.10176E-03   -0.14831E-04  3421   0.696E-03    0.295E-02
RMM:   7    -0.230997050270E+04   -0.16899E-04   -0.40755E-05  3044   0.430E-03    0.165E-02
RMM:   8    -0.230997053404E+04   -0.31342E-04   -0.21666E-05  3008   0.370E-03    0.778E-03
RMM:   9    -0.230997055075E+04   -0.16712E-04   -0.69268E-06  2857   0.305E-03    0.553E-03
RMM:  10    -0.230997056194E+04   -0.11186E-04   -0.45002E-06  2675   0.201E-03    0.320E-03
RMM:  11    -0.230997057302E+04   -0.11081E-04   -0.35592E-06  2737   0.202E-03    0.249E-03
RMM:  12    -0.230997057797E+04   -0.49531E-05   -0.22205E-06  2609   0.164E-03
   8 F= -.23304118E+04 E0= -.23304118E+04  d E =-.811948E-10  mag=     3.0000
       N       E                     dE             d eps       ncg     rms          rms(c)
DAV:   1    -0.230997446621E+04   -0.38932E-02   -0.20385E+01  4480   0.202E+00    0.897E-01
RMM:   2    -0.230997423982E+04    0.22639E-03   -0.12653E-01  4476   0.123E-01    0.555E-01
RMM:   3    -0.230997456386E+04   -0.32404E-03   -0.21374E-02  6049   0.598E-02    0.649E-01
RMM:   4    -0.230996820870E+04    0.63552E-02   -0.66705E-03  5351   0.367E-02    0.117E-01
RMM:   5    -0.230996808792E+04    0.12078E-03   -0.13425E-03  4517   0.148E-02    0.774E-02
RMM:   6    -0.230996800660E+04    0.81320E-04   -0.24391E-04  3622   0.949E-03    0.386E-02
RMM:   7    -0.230996798578E+04    0.20822E-04   -0.57905E-05  3130   0.548E-03    0.198E-02
RMM:   8    -0.230996798428E+04    0.14986E-05   -0.31398E-05  3062   0.447E-03
   9 F= -.23304085E+04 E0= -.23304085E+04  d E =-.270459E-09  mag=     3.0000
       N       E                     dE             d eps       ncg     rms          rms(c)
DAV:   1    -0.230996643997E+04    0.15458E-02   -0.10219E+01  4480   0.131E+00    0.552E-01
RMM:   2    -0.230997043107E+04   -0.39911E-02   -0.82785E-02  4188   0.964E-02    0.325E-01
RMM:   3    -0.230997017188E+04    0.25919E-03   -0.71779E-03  5615   0.337E-02    0.382E-01
RMM:   4    -0.230996813495E+04    0.20369E-02   -0.25773E-03  4761   0.226E-02    0.780E-02
RMM:   5    -0.230996812172E+04    0.13228E-04   -0.48774E-04  3799   0.965E-03    0.422E-02
RMM:   6    -0.230996810434E+04    0.17380E-04   -0.67281E-05  3186   0.620E-03    0.227E-02
RMM:   7    -0.230996810140E+04    0.29338E-05   -0.22855E-05  2958   0.359E-03
  10 F= -.23304089E+04 E0= -.23304089E+04  d E =-.150489E-09  mag=     3.0000
       N       E                     dE             d eps       ncg     rms          rms(c)
DAV:   1    -0.230999187267E+04   -0.23768E-01   -0.20812E+01  4480   0.198E+00    0.571E-01
RMM:   2    -0.230999784204E+04   -0.59694E-02   -0.99238E-02  4038   0.116E-01    0.309E-01
RMM:   3    -0.230999599154E+04    0.18505E-02   -0.50021E-03  4783   0.307E-02    0.115E-01
RMM:   4    -0.230999616039E+04   -0.16884E-03   -0.14921E-03  4173   0.169E-02    0.122E-01
RMM:   5    -0.230999595993E+04    0.20046E-03   -0.24751E-04  3306   0.904E-03    0.291E-02
RMM:   6    -0.230999595859E+04    0.13336E-05   -0.43979E-05  3011   0.357E-03
  11 F= -.23304369E+04 E0= -.23304369E+04  d E =-.140458E-09  mag=     3.0000
       N       E                     dE             d eps       ncg     rms          rms(c)
DAV:   1    -0.231003839623E+04   -0.42436E-01   -0.10217E+01  4480   0.135E+00    0.572E-01
RMM:   2    -0.231003820544E+04    0.19079E-03   -0.59346E-02  3985   0.840E-02    0.304E-01
RMM:   3    -0.231003765297E+04    0.55246E-03   -0.52670E-03  5247   0.289E-02    0.269E-01
RMM:   4    -0.231003692437E+04    0.72860E-03   -0.22386E-03  4776   0.199E-02    0.140E-01
RMM:   5    -0.231003677628E+04    0.14810E-03   -0.52698E-04  3665   0.101E-02    0.347E-02
RMM:   6    -0.231003676510E+04    0.11178E-04   -0.61097E-05  3095   0.554E-03    0.188E-02
RMM:   7    -0.231003676506E+04    0.35012E-07   -0.25641E-05  2968   0.292E-03
  12 F= -.23304779E+04 E0= -.23304779E+04  d E =-.111027E-09  mag=     3.0000
       N       E                     dE             d eps       ncg     rms          rms(c)
DAV:   1    -0.230988050960E+04    0.15626E+00   -0.20089E+01  4480   0.167E+00    0.109E+00
RMM:   2    -0.230986776999E+04    0.12740E-01   -0.14465E-01  4335   0.119E-01    0.546E-01
RMM:   3    -0.230986712463E+04    0.64537E-03   -0.20011E-02  5494   0.657E-02    0.571E-01
RMM:   4    -0.230986321137E+04    0.39133E-02   -0.80871E-03  5369   0.378E-02    0.217E-01
RMM:   5    -0.230986295425E+04    0.25713E-03   -0.16242E-03  4182   0.163E-02    0.726E-02
RMM:   6    -0.230986294290E+04    0.11350E-04   -0.20371E-04  3481   0.983E-03    0.350E-02
RMM:   7    -0.230986296263E+04   -0.19734E-04   -0.61845E-05  3155   0.441E-03    0.225E-02
RMM:   8    -0.230986298238E+04   -0.19752E-04   -0.27307E-05  3017   0.362E-03    0.938E-03
RMM:   9    -0.230986299043E+04   -0.80528E-05   -0.53167E-06  2770   0.251E-03
  13 F= -.23303036E+04 E0= -.23303036E+04  d E =-.206542E-09  mag=     3.0000
       N       E                     dE             d eps       ncg     rms          rms(c)
DAV:   1    -0.230999720170E+04   -0.13422E+00   -0.98688E+00  4480   0.149E+00    0.684E-01
RMM:   2    -0.230999975929E+04   -0.25576E-02   -0.99351E-02  4210   0.111E-01    0.341E-01
RMM:   3    -0.230999804100E+04    0.17183E-02   -0.53587E-03  4473   0.456E-02    0.181E-01
RMM:   4    -0.230999783272E+04    0.20828E-03   -0.25663E-03  4064   0.203E-02    0.639E-02
RMM:   5    -0.230999790577E+04   -0.73055E-04   -0.31515E-04  3625   0.149E-02    0.332E-02
RMM:   6    -0.230999790155E+04    0.42178E-05   -0.45475E-05  3044   0.431E-03
  14 F= -.23304396E+04 E0= -.23304396E+04  d E =-.510329E-09  mag=     3.0000
       N       E                     dE             d eps       ncg     rms          rms(c)
DAV:   1    -0.230992744993E+04    0.70456E-01   -0.19706E+01  4480   0.181E+00    0.813E-01
RMM:   2    -0.230993672599E+04   -0.92761E-02   -0.11774E-01  4424   0.124E-01    0.472E-01
RMM:   3    -0.230993537396E+04    0.13520E-02   -0.97935E-03  5611   0.522E-02    0.379E-01
RMM:   4    -0.230993386973E+04    0.15042E-02   -0.37380E-03  5351   0.284E-02    0.220E-01
RMM:   5    -0.230993338625E+04    0.48348E-03   -0.13914E-03  4579   0.193E-02    0.562E-02
RMM:   6    -0.230993342565E+04   -0.39397E-04   -0.15517E-04  3329   0.989E-03    0.380E-02
RMM:   7    -0.230993340849E+04    0.17156E-04   -0.38660E-05  3100   0.453E-03    0.190E-02
RMM:   8    -0.230993341353E+04   -0.50385E-05   -0.17986E-05  2980   0.382E-03
  15 F= -.23303734E+04 E0= -.23303734E+04  d E =-.387658E-10  mag=     3.0000
       N       E                     dE             d eps       ncg     rms          rms(c)
DAV:   1    -0.230997774811E+04   -0.44340E-01   -0.98236E+00  4640   0.130E+00    0.529E-01
RMM:   2    -0.230998335804E+04   -0.56099E-02   -0.66162E-02  4374   0.970E-02    0.287E-01
RMM:   3    -0.230998274487E+04    0.61316E-03   -0.43634E-03  4891   0.456E-02    0.226E-01
RMM:   4    -0.230998241346E+04    0.33142E-03   -0.18532E-03  4738   0.199E-02    0.154E-01
RMM:   5    -0.230998215934E+04    0.25412E-03   -0.58271E-04  4132   0.130E-02    0.365E-02
RMM:   6    -0.230998217042E+04   -0.11085E-04   -0.67116E-05  3094   0.648E-03    0.227E-02
RMM:   7    -0.230998216709E+04    0.33271E-05   -0.14798E-05  2952   0.320E-03
  16 F= -.23304230E+04 E0= -.23304230E+04  d E =-.207705E-09  mag=     3.0000
       N       E                     dE             d eps       ncg     rms          rms(c)
DAV:   1    -0.230997468722E+04    0.74832E-02   -0.20207E+01  4480   0.165E+00    0.561E-01
RMM:   2    -0.230998207417E+04   -0.73870E-02   -0.72075E-02  4407   0.955E-02    0.303E-01
RMM:   3    -0.230998204984E+04    0.24330E-04   -0.38550E-03  4627   0.526E-02    0.164E-01
RMM:   4    -0.230998192750E+04    0.12234E-03   -0.11886E-03  3881   0.198E-02    0.690E-02
RMM:   5    -0.230998194863E+04   -0.21129E-04   -0.23065E-04  3538   0.946E-03    0.451E-02
RMM:   6    -0.230998193703E+04    0.11604E-04   -0.64197E-05  3011   0.539E-03    0.283E-02
RMM:   7    -0.230998193203E+04    0.49948E-05   -0.18928E-05  2916   0.321E-03
  17 F= -.23304228E+04 E0= -.23304228E+04  d E =-.106184E-09  mag=     3.0000
       N       E                     dE             d eps       ncg     rms          rms(c)
DAV:   1    -0.230997624616E+04    0.56909E-02   -0.10001E+01  4480   0.120E+00    0.413E-01
RMM:   2    -0.230998020197E+04   -0.39558E-02   -0.38878E-02  4278   0.699E-02    0.239E-01
RMM:   3    -0.230998009545E+04    0.10652E-03   -0.26357E-03  4666   0.359E-02    0.165E-01
RMM:   4    -0.230997993639E+04    0.15906E-03   -0.10345E-03  4298   0.155E-02    0.128E-01
RMM:   5    -0.230997978384E+04    0.15254E-03   -0.38867E-04  3820   0.104E-02    0.386E-02
RMM:   6    -0.230997977911E+04    0.47359E-05   -0.60768E-05  3183   0.465E-03
  18 F= -.23304218E+04 E0= -.23304218E+04  d E =-.122930E-10  mag=     3.0000
       N       E                     dE             d eps       ncg     rms          rms(c)
DAV:   1    -0.230997761587E+04    0.21680E-02   -0.19879E+01  4480   0.174E+00    0.573E-01
RMM:   2    -0.230998662686E+04   -0.90110E-02   -0.88074E-02  4382   0.976E-02    0.381E-01
RMM:   3    -0.230998554810E+04    0.10788E-02   -0.64540E-03  5268   0.401E-02    0.263E-01
RMM:   4    -0.230998485545E+04    0.69265E-03   -0.20345E-03  4948   0.202E-02    0.173E-01
RMM:   5    -0.230998458987E+04    0.26558E-03   -0.79145E-04  4177   0.141E-02    0.606E-02
RMM:   6    -0.230998457346E+04    0.16419E-04   -0.15551E-04  3495   0.657E-03    0.287E-02
RMM:   7    -0.230998457289E+04    0.56613E-06   -0.24837E-05  2994   0.381E-03
  19 F= -.23304242E+04 E0= -.23304242E+04  d E =-.219324E-08  mag=     3.0000
       N       E                     dE             d eps       ncg     rms          rms(c)
DAV:   1    -0.230996441178E+04    0.20162E-01   -0.52444E+00  4480   0.896E-01    0.331E-01
RMM:   2    -0.230996768655E+04   -0.32748E-02   -0.30819E-02  4081   0.545E-02    0.201E-01
RMM:   3    -0.230996753268E+04    0.15387E-03   -0.19245E-03  4711   0.226E-02    0.167E-01
RMM:   4    -0.230996732805E+04    0.20463E-03   -0.76548E-04  4092   0.122E-02    0.989E-02
RMM:   5    -0.230996728980E+04    0.38252E-04   -0.21326E-04  3482   0.839E-03    0.294E-02
RMM:   6    -0.230996729538E+04   -0.55869E-05   -0.37861E-05  3059   0.405E-03
  20 F= -.23304080E+04 E0= -.23304080E+04  d E =-.165349E-09  mag=     3.0000
       N       E                     dE             d eps       ncg     rms          rms(c)
DAV:   1    -0.230999310706E+04   -0.25817E-01   -0.11126E+00  4480   0.244E-01    0.341E-01
RMM:   2    -0.230999400252E+04   -0.89546E-03   -0.68230E-03  3641   0.218E-02    0.200E-01
RMM:   3    -0.230999439811E+04   -0.39559E-03   -0.43960E-04  3451   0.916E-03    0.689E-02
RMM:   4    -0.230999449058E+04   -0.92469E-04   -0.13826E-04  3149   0.557E-03    0.237E-02
RMM:   5    -0.230999452320E+04   -0.32618E-04   -0.28652E-05  2709   0.360E-03    0.142E-02
RMM:   6    -0.230999454233E+04   -0.19132E-04   -0.71019E-06  2427   0.187E-03    0.822E-03
RMM:   7    -0.230999458327E+04   -0.40937E-04   -0.81226E-06  2623   0.178E-03    0.522E-03
RMM:   8    -0.230999460492E+04   -0.21651E-04   -0.57017E-06  2658   0.168E-03    0.254E-03
RMM:   9    -0.230999460898E+04   -0.40635E-05   -0.12446E-06  2383   0.139E-03
  21 F= -.23304357E+04 E0= -.23304357E+04  d E =-.140533E-09  mag=     3.0000
       N       E                     dE             d eps       ncg     rms          rms(c)
DAV:   1    -0.230998712141E+04    0.74835E-02   -0.54764E-01  4480   0.179E-01    0.231E-01
RMM:   2    -0.230998775059E+04   -0.62918E-03   -0.33332E-03  3441   0.164E-02    0.141E-01
RMM:   3    -0.230998809504E+04   -0.34445E-03   -0.41102E-04  3539   0.849E-03    0.775E-02
RMM:   4    -0.230998803703E+04    0.58006E-04   -0.16272E-04  2990   0.650E-03    0.267E-02
RMM:   5    -0.230998803693E+04    0.99870E-07   -0.16993E-05  2691   0.296E-03
  22 F= -.23304289E+04 E0= -.23304289E+04  d E =-.146041E-09  mag=     3.0000
       N       E                     dE             d eps       ncg     rms          rms(c)
DAV:   1    -0.230997576512E+04    0.12272E-01   -0.10858E+00  4480   0.261E-01    0.338E-01
RMM:   2    -0.230997684797E+04   -0.10828E-02   -0.55498E-03  3589   0.229E-02    0.205E-01
RMM:   3    -0.230997761654E+04   -0.76857E-03   -0.92247E-04  4494   0.121E-02    0.157E-01
RMM:   4    -0.230997735033E+04    0.26621E-03   -0.50813E-04  3467   0.105E-02    0.446E-02
RMM:   5    -0.230997735289E+04   -0.25605E-05   -0.35738E-05  2890   0.389E-03
  23 F= -.23304182E+04 E0= -.23304182E+04  d E =-.144241E-09  mag=     3.0000
       N       E                     dE             d eps       ncg     rms          rms(c)
DAV:   1    -0.230988966690E+04    0.87683E-01   -0.57137E-01  4800   0.199E-01    0.425E-01
RMM:   2    -0.230988869955E+04    0.96736E-03   -0.17795E-02  4235   0.367E-02    0.233E-01
RMM:   3    -0.230988891054E+04   -0.21099E-03   -0.24181E-03  4348   0.241E-02    0.238E-01
RMM:   4    -0.230988834296E+04    0.56758E-03   -0.87464E-04  3816   0.134E-02    0.102E-01
RMM:   5    -0.230988835620E+04   -0.13243E-04   -0.22804E-04  3368   0.759E-03    0.396E-02
RMM:   6    -0.230988834998E+04    0.62200E-05   -0.46399E-05  2876   0.454E-03
  24 F= -.23303295E+04 E0= -.23303295E+04  d E =-.123352E-09  mag=     3.0000
       N       E                     dE             d eps       ncg     rms          rms(c)
DAV:   1    -0.231003039011E+04   -0.14203E+00   -0.11586E+00  4960   0.289E-01    0.827E-01
RMM:   2    -0.231002324616E+04    0.71440E-02   -0.60576E-02  4563   0.697E-02    0.428E-01
RMM:   3    -0.231002311308E+04    0.13308E-03   -0.97030E-03  5030   0.504E-02    0.446E-01
RMM:   4    -0.231002069916E+04    0.24139E-02   -0.27820E-03  4728   0.242E-02    0.175E-01
RMM:   5    -0.231002060231E+04    0.96853E-04   -0.89484E-04  3975   0.130E-02    0.743E-02
RMM:   6    -0.231002055610E+04    0.46210E-04   -0.16909E-04  3368   0.754E-03    0.255E-02
RMM:   7    -0.231002055348E+04    0.26180E-05   -0.35409E-05  2827   0.311E-03
  25 F= -.23304612E+04 E0= -.23304612E+04  d E =-.181379E-09  mag=     3.0000
