       N       E                     dE             d eps       ncg     rms          rms(c)
DAV:   1     0.129355501397E+05    0.12936E+05   -0.84363E+05  4560   0.143E+03
DAV:   2    -0.108719174294E+04   -0.14023E+05   -0.13422E+05  5200   0.328E+02
DAV:   3    -0.249236634827E+04   -0.14052E+04   -0.13911E+04  5480   0.110E+02
DAV:   4    -0.253404999701E+04   -0.41684E+02   -0.41513E+02  6720   0.276E+01
DAV:   5    -0.253473719290E+04   -0.68720E+00   -0.68610E+00  5700   0.279E+00    0.171E+02
RMM:   6    -0.149607349649E+04    0.10387E+04   -0.19374E+03  4510   0.381E+01    0.729E+01
RMM:   7    -0.166526102298E+04   -0.16919E+03   -0.30005E+02  5183   0.144E+01    0.490E+01
RMM:   8    -0.171689584864E+04   -0.51635E+02   -0.39998E+01  5368   0.688E+00    0.365E+01
RMM:   9    -0.185308627391E+04   -0.13619E+03   -0.75033E+01  5213   0.813E+00    0.406E+01
RMM:  10    -0.193551458331E+04   -0.82428E+02   -0.50902E+01  5469   0.666E+00    0.262E+01
RMM:  11    -0.198868078308E+04   -0.53166E+02   -0.22313E+01  5374   0.410E+00    0.221E+01
RMM:  12    -0.206930259382E+04   -0.80622E+02   -0.29506E+01  5011   0.431E+00    0.146E+01
RMM:  13    -0.216374331902E+04   -0.94441E+02   -0.48780E+01  4884   0.533E+00    0.111E+01
RMM:  14    -0.227414998101E+04   -0.11041E+03   -0.94540E+01  4528   0.673E+00    0.710E+00
RMM:  15    -0.231221331080E+04   -0.38063E+02   -0.38651E+01  4560   0.469E+00    0.609E+00
RMM:  16    -0.231882978660E+04   -0.66165E+01   -0.97026E+00  5278   0.230E+00    0.418E+00
RMM:  17    -0.232245588378E+04   -0.36261E+01   -0.39998E+00  4748   0.125E+00    0.240E+00
RMM:  18    -0.232471165803E+04   -0.22558E+01   -0.13074E+00  4709   0.943E-01    0.112E+00
RMM:  19    -0.232541579939E+04   -0.70414E+00   -0.31924E-01  5075   0.385E-01    0.586E-01
RMM:  20    -0.232553711143E+04   -0.12131E+00   -0.75671E-02  4956   0.228E-01    0.316E-01
RMM:  21    -0.232556664095E+04   -0.29530E-01   -0.16527E-02  4796   0.123E-01    0.164E-01
RMM:  22    -0.232558489357E+04   -0.18253E-01   -0.77075E-03  4543   0.727E-02    0.115E-01
RMM:  23    -0.232559810719E+04   -0.13214E-01   -0.39706E-03  4592   0.558E-02    0.730E-02
RMM:  24    -0.232560715192E+04   -0.90447E-02   -0.29425E-03  4501   0.455E-02    0.482E-02
RMM:  25    -0.232561325214E+04   -0.61002E-02   -0.21099E-03  4558   0.379E-02    0.287E-02
RMM:  26    -0.232561632887E+04   -0.30767E-02   -0.12974E-03  4481   0.288E-02    0.197E-02
RMM:  27    -0.232561707764E+04   -0.74877E-03   -0.38703E-04  4064   0.190E-02    0.900E-03
RMM:  28    -0.232561742561E+04   -0.34797E-03   -0.15377E-04  3744   0.110E-02    0.654E-03
RMM:  29    -0.232561756289E+04   -0.13728E-03   -0.63794E-05  3642   0.829E-03    0.304E-03
RMM:  30    -0.232561761950E+04   -0.56612E-04   -0.24739E-05  3225   0.480E-03    0.228E-03
RMM:  31    -0.232561765285E+04   -0.33355E-04   -0.12615E-05  2980   0.375E-03    0.121E-03
RMM:  32    -0.232561765971E+04   -0.68588E-05   -0.52780E-06  2645   0.263E-03
   1 F= -.23465902E+04 E0= -.23465902E+04  d E =-.142202E-10  mag=     4.9999
       N       E                     dE             d eps       ncg     rms          rms(c)
DAV:   1    -0.232556756374E+04    0.50089E-01   -0.20310E+00  4740   0.731E-01    0.390E-01
RMM:   2    -0.232556962262E+04   -0.20589E-02   -0.42361E-02  5635   0.113E-01    0.281E-01
RMM:   3    -0.232556911214E+04    0.51048E-03   -0.43527E-03  5377   0.446E-02    0.269E-01
RMM:   4    -0.232556852582E+04    0.58631E-03   -0.21522E-03  5176   0.250E-02    0.172E-01
RMM:   5    -0.232556833261E+04    0.19321E-03   -0.56053E-04  4568   0.149E-02    0.125E-01
RMM:   6    -0.232556818521E+04    0.14740E-03   -0.23668E-04  3601   0.905E-03    0.430E-02
RMM:   7    -0.232556816446E+04    0.20750E-04   -0.52280E-05  3136   0.439E-03    0.166E-02
RMM:   8    -0.232556816300E+04    0.14644E-05   -0.13381E-05  2902   0.306E-03
   2 F= -.23465407E+04 E0= -.23465407E+04  d E =-.200063E-13  mag=     5.0000
       N       E                     dE             d eps       ncg     rms          rms(c)
DAV:   1    -0.232560996993E+04   -0.41805E-01   -0.79203E+00  4560   0.140E+00    0.742E-01
RMM:   2    -0.232562150282E+04   -0.11533E-01   -0.19281E-01  5780   0.234E-01    0.572E-01
RMM:   3    -0.232561844616E+04    0.30567E-02   -0.14796E-02  5656   0.847E-02    0.475E-01
RMM:   4    -0.232561730698E+04    0.11392E-02   -0.80466E-03  5899   0.487E-02    0.396E-01
RMM:   5    -0.232561602942E+04    0.12776E-02   -0.26843E-03  5590   0.311E-02    0.245E-01
RMM:   6    -0.232561552236E+04    0.50706E-03   -0.10330E-03  4702   0.182E-02    0.107E-01
RMM:   7    -0.232561540514E+04    0.11722E-03   -0.25458E-04  3885   0.818E-03    0.338E-02
RMM:   8    -0.232561541139E+04   -0.62515E-05   -0.50654E-05  3189   0.550E-03
   3 F= -.23465880E+04 E0= -.23465880E+04  d E =-.848789E-12  mag=     5.0000
       N       E                     dE             d eps       ncg     rms          rms(c)
DAV:   1    -0.232559891197E+04    0.16493E-01   -0.36866E+00  4540   0.102E+00    0.479E-01
RMM:   2    -0.232560259971E+04   -0.36877E-02   -0.60565E-02  5449   0.126E-01    0.337E-01
RMM:   3    -0.232560195637E+04    0.64334E-03   -0.51713E-03  5197   0.521E-02    0.347E-01
RMM:   4    -0.232560150461E+04    0.45176E-03   -0.27276E-03  5279   0.259E-02    0.253E-01
RMM:   5    -0.232560099227E+04    0.51234E-03   -0.77158E-04  4608   0.173E-02    0.756E-02
RMM:   6    -0.232560093790E+04    0.54376E-04   -0.20010E-04  3462   0.891E-03    0.511E-02
RMM:   7    -0.232560090196E+04    0.35930E-04   -0.77364E-05  3100   0.502E-03    0.146E-02
RMM:   8    -0.232560090189E+04    0.71668E-07   -0.14413E-05  2882   0.302E-03
   4 F= -.23465736E+04 E0= -.23465736E+04  d E =-.109267E-11  mag=     5.0000
       N       E                     dE             d eps       ncg     rms          rms(c)
DAV:   1    -0.232562024271E+04   -0.19341E-01   -0.70494E+00  4500   0.135E+00    0.587E-01
RMM:   2    -0.232562296968E+04   -0.27270E-02   -0.49734E-02  4971   0.124E-01    0.376E-01
RMM:   3    -0.232562480000E+04   -0.18303E-02   -0.75171E-03  5297   0.615E-02    0.527E-01
RMM:   4    -0.232562241120E+04    0.23888E-02   -0.31330E-03  5603   0.295E-02    0.203E-01
RMM:   5    -0.232562250042E+04   -0.89223E-04   -0.11433E-03  5107   0.189E-02    0.162E-01
RMM:   6    -0.232562219613E+04    0.30429E-03   -0.36682E-04  3876   0.113E-02    0.489E-02
RMM:   7    -0.232562217227E+04    0.23865E-04   -0.77386E-05  3396   0.479E-03    0.182E-02
RMM:   8    -0.232562216923E+04    0.30418E-05   -0.20216E-05  2957   0.308E-03
   5 F= -.23465945E+04 E0= -.23465945E+04  d E =-.121412E-13  mag=     5.0000
       N       E                     dE             d eps       ncg     rms          rms(c)
DAV:   1    -0.232556709593E+04    0.55076E-01   -0.37627E+00  4540   0.960E-01    0.439E-01
RMM:   2    -0.232556911046E+04   -0.20145E-02   -0.55924E-02  5308   0.116E-01    0.313E-01
RMM:   3    -0.232556847738E+04    0.63308E-03   -0.50362E-03  4986   0.544E-02    0.289E-01
RMM:   4    -0.232556791172E+04    0.56566E-03   -0.20565E-03  5247   0.236E-02    0.209E-01
RMM:   5    -0.232556778590E+04    0.12583E-03   -0.13880E-03  5206   0.192E-02    0.182E-01
RMM:   6    -0.232556746319E+04    0.32270E-03   -0.51344E-04  4387   0.133E-02    0.720E-02
RMM:   7    -0.232556740662E+04    0.56566E-04   -0.13121E-04  3653   0.569E-03    0.249E-02
RMM:   8    -0.232556740350E+04    0.31294E-05   -0.74615E-05  3109   0.436E-03
   6 F= -.23465390E+04 E0= -.23465390E+04  d E =-.469507E-11  mag=     5.0000
       N       E                     dE             d eps       ncg     rms          rms(c)
DAV:   1    -0.232564123401E+04   -0.73827E-01   -0.75205E+00  4520   0.132E+00    0.589E-01
RMM:   2    -0.232564524869E+04   -0.40147E-02   -0.10320E-01  5355   0.162E-01    0.421E-01
RMM:   3    -0.232564342382E+04    0.18249E-02   -0.86882E-03  5217   0.735E-02    0.336E-01
RMM:   4    -0.232564290680E+04    0.51702E-03   -0.45943E-03  5617   0.357E-02    0.273E-01
RMM:   5    -0.232564192112E+04    0.98567E-03   -0.18376E-03  5345   0.250E-02    0.893E-02
RMM:   6    -0.232564180174E+04    0.11939E-03   -0.34461E-04  4298   0.103E-02    0.502E-02
RMM:   7    -0.232564179324E+04    0.84940E-05   -0.11339E-04  3248   0.560E-03    0.526E-02
RMM:   8    -0.232564177058E+04    0.22658E-04   -0.80507E-05  3186   0.531E-03    0.200E-02
RMM:   9    -0.232564176325E+04    0.73316E-05   -0.23005E-05  2978   0.402E-03
   7 F= -.23466155E+04 E0= -.23466155E+04  d E =-.365610E-13  mag=     5.0000
       N       E                     dE             d eps       ncg     rms          rms(c)
DAV:   1    -0.232557133489E+04    0.70436E-01   -0.65160E+00  4540   0.139E+00    0.525E-01
RMM:   2    -0.232557995961E+04   -0.86247E-02   -0.11878E-01  5190   0.184E-01    0.353E-01
RMM:   3    -0.232557908686E+04    0.87275E-03   -0.11139E-02  5327   0.887E-02    0.430E-01
RMM:   4    -0.232557727817E+04    0.18087E-02   -0.33667E-03  5450   0.322E-02    0.178E-01
RMM:   5    -0.232557751341E+04   -0.23524E-03   -0.13921E-03  5204   0.213E-02    0.226E-01
RMM:   6    -0.232557698583E+04    0.52758E-03   -0.63147E-04  4441   0.139E-02    0.466E-02
RMM:   7    -0.232557697107E+04    0.14764E-04   -0.13720E-04  3585   0.604E-03    0.255E-02
RMM:   8    -0.232557696681E+04    0.42529E-05   -0.26783E-05  3110   0.384E-03
   8 F= -.23465501E+04 E0= -.23465501E+04  d E =-.340880E-11  mag=     5.0000
       N       E                     dE             d eps       ncg     rms          rms(c)
DAV:   1    -0.232560482381E+04   -0.27853E-01   -0.20147E+01  4500   0.246E+00    0.901E-01
RMM:   2    -0.232561920722E+04   -0.14383E-01   -0.26072E-01  4789   0.290E-01    0.558E-01
RMM:   3    -0.232562095107E+04   -0.17439E-02   -0.32448E-02  5475   0.144E-01    0.871E-01
RMM:   4    -0.232561378340E+04    0.71677E-02   -0.11353E-02  5756   0.586E-02    0.243E-01
RMM:   5    -0.232561412105E+04   -0.33765E-03   -0.31680E-03  5255   0.333E-02    0.298E-01
RMM:   6    -0.232561313526E+04    0.98580E-03   -0.12342E-03  4943   0.194E-02    0.631E-02
RMM:   7    -0.232561311455E+04    0.20704E-04   -0.26130E-04  3880   0.821E-03    0.308E-02
RMM:   8    -0.232561310253E+04    0.12025E-04   -0.50368E-05  3182   0.550E-03    0.148E-02
RMM:   9    -0.232561310072E+04    0.18082E-05   -0.12971E-05  2997   0.349E-03
   9 F= -.23465850E+04 E0= -.23465850E+04  d E =-.151030E-13  mag=     5.0000
       N       E                     dE             d eps       ncg     rms          rms(c)
DAV:   1    -0.232561012785E+04    0.29747E-02   -0.98912E+00  4560   0.171E+00    0.529E-01
RMM:   2    -0.232561920016E+04   -0.90723E-02   -0.12869E-01  4575   0.193E-01    0.305E-01
RMM:   3    -0.232561908386E+04    0.11630E-03   -0.11960E-02  4767   0.978E-02    0.436E-01
RMM:   4    -0.232561758688E+04    0.14970E-02   -0.33890E-03  5245   0.312E-02    0.160E-01
RMM:   5    -0.232561756914E+04    0.17738E-04   -0.93646E-04  4646   0.184E-02    0.127E-01
RMM:   6    -0.232561738581E+04    0.18333E-03   -0.33022E-04  3819   0.105E-02    0.401E-02
RMM:   7    -0.232561737423E+04    0.11579E-04   -0.64269E-05  3267   0.519E-03    0.193E-02
RMM:   8    -0.232561737355E+04    0.67643E-06   -0.14925E-05  2943   0.317E-03
  10 F= -.23465898E+04 E0= -.23465898E+04  d E =-.411541E-13  mag=     5.0000
       N       E                     dE             d eps       ncg     rms          rms(c)
DAV:   1    -0.232560486169E+04    0.12513E-01   -0.19884E+01  4500   0.236E+00    0.504E-01
RMM:   2    -0.232561633182E+04   -0.11470E-01   -0.14320E-01  4418   0.218E-01    0.287E-01
RMM:   3    -0.232561615486E+04    0.17696E-03   -0.13242E-02  4476   0.979E-02    0.285E-01
RMM:   4    -0.232561532911E+04    0.82575E-03   -0.34432E-03  5168   0.329E-02    0.142E-01
RMM:   5    -0.232561524836E+04    0.80749E-04   -0.66396E-04  4302   0.164E-02    0.125E-01
RMM:   6    -0.232561512719E+04    0.12117E-03   -0.19957E-04  3344   0.834E-03    0.405E-02
RMM:   7    -0.232561512132E+04    0.58667E-05   -0.27341E-05  2963   0.393E-03
  11 F= -.23465877E+04 E0= -.23465877E+04  d E =-.309445E-12  mag=     5.0000
       N       E                     dE             d eps       ncg     rms          rms(c)
DAV:   1    -0.232559726839E+04    0.17859E-01   -0.10197E+01  4500   0.165E+00    0.351E-01
RMM:   2    -0.232560305451E+04   -0.57861E-02   -0.72441E-02  4581   0.162E-01    0.247E-01
RMM:   3    -0.232560332676E+04   -0.27225E-03   -0.71091E-03  4854   0.706E-02    0.347E-01
RMM:   4    -0.232560233676E+04    0.99000E-03   -0.21734E-03  5100   0.238E-02    0.107E-01
RMM:   5    -0.232560225429E+04    0.82469E-04   -0.66632E-04  4490   0.143E-02    0.756E-02
RMM:   6    -0.232560220322E+04    0.51070E-04   -0.21139E-04  3594   0.907E-03    0.463E-02
RMM:   7    -0.232560217884E+04    0.24379E-04   -0.50052E-05  3056   0.482E-03    0.160E-02
RMM:   8    -0.232560217641E+04    0.24310E-05   -0.76617E-06  2809   0.249E-03
  12 F= -.23465749E+04 E0= -.23465749E+04  d E =-.128016E-12  mag=     5.0000
       N       E                     dE             d eps       ncg     rms          rms(c)
DAV:   1    -0.232561263712E+04   -0.10458E-01   -0.20133E+01  4480   0.242E+00    0.547E-01
RMM:   2    -0.232562663315E+04   -0.13996E-01   -0.17587E-01  4976   0.242E-01    0.431E-01
RMM:   3    -0.232562665171E+04   -0.18570E-04   -0.16063E-02  5121   0.106E-01    0.591E-01
RMM:   4    -0.232562366696E+04    0.29848E-02   -0.46383E-03  5294   0.363E-02    0.131E-01
RMM:   5    -0.232562348762E+04    0.17933E-03   -0.13935E-03  4648   0.208E-02    0.701E-02
RMM:   6    -0.232562344858E+04    0.39044E-04   -0.31700E-04  3926   0.109E-02    0.296E-02
RMM:   7    -0.232562345274E+04   -0.41597E-05   -0.53992E-05  3078   0.552E-03
  13 F= -.23465959E+04 E0= -.23465959E+04  d E =-.401357E-12  mag=     5.0000
       N       E                     dE             d eps       ncg     rms          rms(c)
DAV:   1    -0.232563166956E+04   -0.82210E-02   -0.10148E+01  4540   0.163E+00    0.426E-01
RMM:   2    -0.232564216775E+04   -0.10498E-01   -0.11844E-01  5116   0.176E-01    0.269E-01
RMM:   3    -0.232564218795E+04   -0.20196E-04   -0.99536E-03  4941   0.737E-02    0.363E-01
RMM:   4    -0.232564131992E+04    0.86803E-03   -0.29863E-03  5252   0.258E-02    0.155E-01
RMM:   5    -0.232564119870E+04    0.12122E-03   -0.91163E-04  4719   0.156E-02    0.606E-02
RMM:   6    -0.232564116496E+04    0.33740E-04   -0.16856E-04  3765   0.848E-03    0.350E-02
RMM:   7    -0.232564115781E+04    0.71571E-05   -0.49886E-05  2966   0.457E-03
  14 F= -.23466142E+04 E0= -.23466142E+04  d E =-.663107E-13  mag=     5.0000
       N       E                     dE             d eps       ncg     rms          rms(c)
DAV:   1    -0.232556527536E+04    0.75890E-01   -0.20396E+01  4500   0.200E+00    0.665E-01
RMM:   2    -0.232557914993E+04   -0.13875E-01   -0.20179E-01  4787   0.212E-01    0.404E-01
RMM:   3    -0.232557817635E+04    0.97358E-03   -0.18884E-02  4825   0.967E-02    0.418E-01
RMM:   4    -0.232557776162E+04    0.41473E-03   -0.68139E-03  5760   0.373E-02    0.336E-01
RMM:   5    -0.232557691179E+04    0.84983E-03   -0.16542E-03  5181   0.220E-02    0.561E-02
RMM:   6    -0.232557688903E+04    0.22762E-04   -0.23011E-04  3772   0.818E-03    0.350E-02
RMM:   7    -0.232557687225E+04    0.16786E-04   -0.56083E-05  3267   0.454E-03    0.186E-02
RMM:   8    -0.232557687716E+04   -0.49163E-05   -0.28578E-05  2965   0.406E-03
  15 F= -.23465493E+04 E0= -.23465493E+04  d E =-.487280E-13  mag=     5.0000
       N       E                     dE             d eps       ncg     rms          rms(c)
DAV:   1    -0.232562704805E+04   -0.50176E-01   -0.10046E+01  4480   0.143E+00    0.456E-01
RMM:   2    -0.232563254428E+04   -0.54962E-02   -0.84628E-02  4583   0.152E-01    0.289E-01
RMM:   3    -0.232563213347E+04    0.41081E-03   -0.88420E-03  4823   0.742E-02    0.254E-01
RMM:   4    -0.232563200802E+04    0.12545E-03   -0.39271E-03  5230   0.307E-02    0.209E-01
RMM:   5    -0.232563169398E+04    0.31404E-03   -0.72734E-04  4735   0.166E-02    0.978E-02
RMM:   6    -0.232563161244E+04    0.81542E-04   -0.16966E-04  3412   0.777E-03    0.493E-02
RMM:   7    -0.232563158640E+04    0.26037E-04   -0.68070E-05  3104   0.460E-03    0.211E-02
RMM:   8    -0.232563158395E+04    0.24540E-05   -0.29247E-05  2931   0.336E-03
  16 F= -.23466039E+04 E0= -.23466039E+04  d E =-.129743E-13  mag=     5.0000
       N       E                     dE             d eps       ncg     rms          rms(c)
DAV:   1    -0.232558591051E+04    0.45676E-01   -0.20036E+01  4480   0.199E+00    0.532E-01
RMM:   2    -0.232559924135E+04   -0.13331E-01   -0.16286E-01  4464   0.189E-01    0.313E-01
RMM:   3    -0.232559951386E+04   -0.27251E-03   -0.13675E-02  4679   0.903E-02    0.361E-01
RMM:   4    -0.232559820502E+04    0.13088E-02   -0.39726E-03  5121   0.321E-02    0.171E-01
RMM:   5    -0.232559830493E+04   -0.99916E-04   -0.11554E-03  4965   0.187E-02    0.198E-01
RMM:   6    -0.232559794151E+04    0.36342E-03   -0.38478E-04  3803   0.110E-02    0.386E-02
RMM:   7    -0.232559793864E+04    0.28745E-05   -0.65897E-05  3243   0.487E-03
  17 F= -.23465706E+04 E0= -.23465706E+04  d E =-.289749E-12  mag=     5.0000
       N       E                     dE             d eps       ncg     rms          rms(c)
DAV:   1    -0.232565269608E+04   -0.54755E-01   -0.10086E+01  4480   0.144E+00    0.523E-01
RMM:   2    -0.232565993575E+04   -0.72397E-02   -0.10375E-01  4515   0.165E-01    0.316E-01
RMM:   3    -0.232566049981E+04   -0.56406E-03   -0.12813E-02  5099   0.863E-02    0.372E-01
RMM:   4    -0.232565875107E+04    0.17487E-02   -0.40130E-03  5249   0.346E-02    0.102E-01
RMM:   5    -0.232565861500E+04    0.13606E-03   -0.54412E-04  4202   0.143E-02    0.702E-02
RMM:   6    -0.232565861548E+04   -0.47839E-06   -0.16712E-04  3304   0.750E-03    0.725E-02
RMM:   7    -0.232565856816E+04    0.47325E-04   -0.41053E-05  3045   0.519E-03    0.161E-02
RMM:   8    -0.232565856452E+04    0.36382E-05   -0.23251E-05  2958   0.348E-03
  18 F= -.23466304E+04 E0= -.23466304E+04  d E =-.101218E-12  mag=     5.0000
       N       E                     dE             d eps       ncg     rms          rms(c)
DAV:   1    -0.232553559295E+04    0.12298E+00   -0.19748E+01  4480   0.207E+00    0.834E-01
RMM:   2    -0.232555523105E+04   -0.19638E-01   -0.27497E-01  4522   0.242E-01    0.444E-01
RMM:   3    -0.232555369564E+04    0.15354E-02   -0.24627E-02  4840   0.130E-01    0.400E-01
RMM:   4    -0.232555254799E+04    0.11476E-02   -0.77764E-03  5811   0.451E-02    0.251E-01
RMM:   5    -0.232555162053E+04    0.92746E-03   -0.17783E-03  5426   0.240E-02    0.732E-02
RMM:   6    -0.232555156024E+04    0.60291E-04   -0.22339E-04  4266   0.870E-03    0.428E-02
RMM:   7    -0.232555158161E+04   -0.21374E-04   -0.10533E-04  3223   0.633E-03    0.682E-02
RMM:   8    -0.232555154321E+04    0.38404E-04   -0.47736E-05  3062   0.532E-03    0.166E-02
RMM:   9    -0.232555154320E+04    0.65338E-08   -0.17426E-05  2955   0.323E-03
  19 F= -.23465250E+04 E0= -.23465250E+04  d E =-.144351E-11  mag=     5.0000
       N       E                     dE             d eps       ncg     rms          rms(c)
DAV:   1    -0.232559203425E+04   -0.40491E-01   -0.99514E+00  4480   0.168E+00    0.533E-01
RMM:   2    -0.232560490183E+04   -0.12868E-01   -0.15504E-01  4562   0.229E-01    0.280E-01
RMM:   3    -0.232560455789E+04    0.34394E-03   -0.14644E-02  4832   0.930E-02    0.229E-01
RMM:   4    -0.232560454593E+04    0.11960E-04   -0.31059E-03  5869   0.279E-02    0.237E-01
RMM:   5    -0.232560406620E+04    0.47973E-03   -0.98298E-04  4818   0.169E-02    0.120E-01
RMM:   6    -0.232560400631E+04    0.59893E-04   -0.38797E-04  3978   0.118E-02    0.795E-02
RMM:   7    -0.232560393617E+04    0.70144E-04   -0.61747E-05  3106   0.606E-03    0.195E-02
RMM:   8    -0.232560393164E+04    0.45294E-05   -0.26049E-05  2998   0.371E-03
  20 F= -.23465752E+04 E0= -.23465752E+04  d E =-.703093E-13  mag=     5.0000
       N       E                     dE             d eps       ncg     rms          rms(c)
DAV:   1    -0.232559753843E+04    0.63977E-02   -0.19746E+01  4480   0.230E+00    0.680E-01
RMM:   2    -0.232561772822E+04   -0.20190E-01   -0.23146E-01  4583   0.283E-01    0.385E-01
RMM:   3    -0.232561886524E+04   -0.11370E-02   -0.23439E-02  5483   0.100E-01    0.433E-01
RMM:   4    -0.232561679084E+04    0.20744E-02   -0.42604E-03  5926   0.315E-02    0.172E-01
RMM:   5    -0.232561661952E+04    0.17132E-03   -0.13778E-03  4302   0.183E-02    0.144E-01
RMM:   6    -0.232561659820E+04    0.21314E-04   -0.57041E-04  4310   0.137E-02    0.127E-01
RMM:   7    -0.232561645605E+04    0.14215E-03   -0.10104E-04  3254   0.671E-03    0.212E-02
RMM:   8    -0.232561645492E+04    0.11258E-05   -0.24150E-05  2995   0.367E-03
  21 F= -.23465900E+04 E0= -.23465900E+04  d E =-.644184E-12  mag=     5.0000
       N       E                     dE             d eps       ncg     rms          rms(c)
DAV:   1    -0.232561947803E+04   -0.30220E-02   -0.99181E+00  4480   0.166E+00    0.488E-01
RMM:   2    -0.232562989813E+04   -0.10420E-01   -0.11700E-01  4903   0.212E-01    0.360E-01
RMM:   3    -0.232562971889E+04    0.17924E-03   -0.11181E-02  5258   0.713E-02    0.336E-01
RMM:   4    -0.232562833072E+04    0.13882E-02   -0.26285E-03  5564   0.272E-02    0.116E-01
RMM:   5    -0.232562823814E+04    0.92575E-04   -0.63889E-04  4518   0.141E-02    0.104E-01
RMM:   6    -0.232562820863E+04    0.29512E-04   -0.25924E-04  3702   0.985E-03    0.836E-02
RMM:   7    -0.232562815042E+04    0.58213E-04   -0.68090E-05  3266   0.572E-03    0.171E-02
RMM:   8    -0.232562814708E+04    0.33358E-05   -0.13190E-05  2926   0.334E-03
  22 F= -.23466010E+04 E0= -.23466010E+04  d E =-.919179E-13  mag=     5.0000
       N       E                     dE             d eps       ncg     rms          rms(c)
DAV:   1    -0.232557927088E+04    0.48880E-01   -0.19996E+01  4480   0.234E+00    0.611E-01
RMM:   2    -0.232559642374E+04   -0.17153E-01   -0.19272E-01  4749   0.270E-01    0.432E-01
RMM:   3    -0.232559672668E+04   -0.30294E-03   -0.19169E-02  5311   0.938E-02    0.394E-01
RMM:   4    -0.232559490232E+04    0.18244E-02   -0.47289E-03  5726   0.343E-02    0.151E-01
RMM:   5    -0.232559459252E+04    0.30980E-03   -0.10602E-03  5001   0.165E-02    0.105E-01
RMM:   6    -0.232559462189E+04   -0.29373E-04   -0.42754E-04  4076   0.118E-02    0.126E-01
RMM:   7    -0.232559449379E+04    0.12810E-03   -0.14495E-04  3511   0.739E-03    0.247E-02
RMM:   8    -0.232559448837E+04    0.54229E-05   -0.19658E-05  2957   0.392E-03
  23 F= -.23465667E+04 E0= -.23465667E+04  d E =-.297062E-12  mag=     5.0000
       N       E                     dE             d eps       ncg     rms          rms(c)
DAV:   1    -0.232561515110E+04   -0.20657E-01   -0.99692E+00  4480   0.166E+00    0.522E-01
RMM:   2    -0.232562692977E+04   -0.11779E-01   -0.12933E-01  5120   0.214E-01    0.537E-01
RMM:   3    -0.232562408138E+04    0.28484E-02   -0.12262E-02  5259   0.742E-02    0.314E-01
RMM:   4    -0.232562321005E+04    0.87133E-03   -0.29601E-03  5493   0.278E-02    0.166E-01
RMM:   5    -0.232562316494E+04    0.45105E-04   -0.13693E-03  5074   0.187E-02    0.208E-01
RMM:   6    -0.232562283960E+04    0.32534E-03   -0.57459E-04  4593   0.134E-02    0.730E-02
RMM:   7    -0.232562279996E+04    0.39643E-04   -0.73327E-05  3124   0.590E-03    0.189E-02
RMM:   8    -0.232562279818E+04    0.17771E-05   -0.16444E-05  2967   0.358E-03
  24 F= -.23465976E+04 E0= -.23465976E+04  d E =-.238283E-12  mag=     5.0000
       N       E                     dE             d eps       ncg     rms          rms(c)
DAV:   1    -0.232558930963E+04    0.33490E-01   -0.19891E+01  4480   0.231E+00    0.720E-01
RMM:   2    -0.232560936285E+04   -0.20053E-01   -0.23555E-01  4763   0.276E-01    0.680E-01
RMM:   3    -0.232560594810E+04    0.34148E-02   -0.25617E-02  5381   0.106E-01    0.457E-01
RMM:   4    -0.232560437251E+04    0.15756E-02   -0.76647E-03  5929   0.374E-02    0.264E-01
RMM:   5    -0.232560401122E+04    0.36129E-03   -0.20067E-03  5456   0.215E-02    0.248E-01
RMM:   6    -0.232560360300E+04    0.40822E-03   -0.11012E-03  5297   0.167E-02    0.114E-01
RMM:   7    -0.232560349681E+04    0.10619E-03   -0.20180E-04  3775   0.833E-03    0.251E-02
RMM:   8    -0.232560349464E+04    0.21677E-05   -0.24557E-05  2992   0.423E-03
  25 F= -.23465733E+04 E0= -.23465733E+04  d E =-.542883E-12  mag=     5.0000
       N       E                     dE             d eps       ncg     rms          rms(c)
DAV:   1    -0.232563033311E+04   -0.26836E-01   -0.54460E+00  4480   0.121E+00    0.466E-01
RMM:   2    -0.232563913948E+04   -0.88064E-02   -0.98223E-02  4981   0.164E-01    0.428E-01
RMM:   3    -0.232563693606E+04    0.22034E-02   -0.95132E-03  5227   0.640E-02    0.279E-01
RMM:   4    -0.232563625720E+04    0.67887E-03   -0.20735E-03  5261   0.227E-02    0.153E-01
RMM:   5    -0.232563620530E+04    0.51899E-04   -0.79658E-04  4935   0.142E-02    0.163E-01
RMM:   6    -0.232563605245E+04    0.15285E-03   -0.46557E-04  4457   0.115E-02    0.853E-02
RMM:   7    -0.232563598606E+04    0.66389E-04   -0.99572E-05  3328   0.625E-03    0.157E-02
RMM:   8    -0.232563598387E+04    0.21903E-05   -0.19151E-05  2907   0.332E-03
  26 F= -.23466092E+04 E0= -.23466092E+04  d E =-.297295E-13  mag=     5.0000
       N       E                     dE             d eps       ncg     rms          rms(c)
DAV:   1    -0.232559538004E+04    0.40606E-01   -0.94100E-01  4900   0.482E-01    0.296E-01
RMM:   2    -0.232559680828E+04   -0.14282E-02   -0.21163E-02  5157   0.765E-02    0.228E-01
RMM:   3    -0.232559667718E+04    0.13110E-03   -0.23485E-03  4689   0.392E-02    0.211E-01
RMM:   4    -0.232559630349E+04    0.37369E-03   -0.76758E-04  4312   0.166E-02    0.933E-02
RMM:   5    -0.232559638010E+04   -0.76608E-04   -0.44518E-04  4318   0.122E-02    0.126E-01
RMM:   6    -0.232559623144E+04    0.14866E-03   -0.14352E-04  3295   0.730E-03    0.246E-02
RMM:   7    -0.232559622507E+04    0.63681E-05   -0.36177E-05  2951   0.400E-03
  27 F= -.23465682E+04 E0= -.23465682E+04  d E =-.933163E-13  mag=     5.0000
       N       E                     dE             d eps       ncg     rms          rms(c)
DAV:   1    -0.232561062041E+04   -0.14389E-01   -0.46680E-01  4780   0.336E-01    0.192E-01
RMM:   2    -0.232561118491E+04   -0.56451E-03   -0.83620E-03  5150   0.483E-02    0.145E-01
RMM:   3    -0.232561115800E+04    0.26910E-04   -0.93153E-04  4235   0.234E-02    0.135E-01
RMM:   4    -0.232561101503E+04    0.14298E-03   -0.30117E-04  3738   0.105E-02    0.589E-02
RMM:   5    -0.232561107481E+04   -0.59787E-04   -0.16868E-04  3417   0.798E-03    0.923E-02
RMM:   6    -0.232561100323E+04    0.71581E-04   -0.67010E-05  2981   0.565E-03    0.135E-02
RMM:   7    -0.232561100245E+04    0.78033E-06   -0.18024E-05  2847   0.279E-03
  28 F= -.23465834E+04 E0= -.23465834E+04  d E =-.419512E-13  mag=     5.0000
       N       E                     dE             d eps       ncg     rms          rms(c)
DAV:   1    -0.232561884295E+04   -0.78397E-02   -0.91432E-01  4640   0.448E-01    0.177E-01
RMM:   2    -0.232561948237E+04   -0.63942E-03   -0.49753E-03  4491   0.428E-02    0.123E-01
RMM:   3    -0.232561974066E+04   -0.25829E-03   -0.80905E-04  4055   0.216E-02    0.175E-01
RMM:   4    -0.232561956448E+04    0.17618E-03   -0.33661E-04  3993   0.107E-02    0.630E-02
RMM:   5    -0.232561958506E+04   -0.20582E-04   -0.11882E-04  3221   0.750E-03    0.503E-02
RMM:   6    -0.232561956340E+04    0.21656E-04   -0.33101E-05  2932   0.489E-03    0.895E-03
RMM:   7    -0.232561956488E+04   -0.14753E-05   -0.86474E-06  2840   0.257E-03
  29 F= -.23465923E+04 E0= -.23465923E+04  d E =-.348894E-13  mag=     5.0000
       N       E                     dE             d eps       ncg     rms          rms(c)
DAV:   1    -0.232563010251E+04   -0.10539E-01   -0.45903E-01  4680   0.324E-01    0.152E-01
RMM:   2    -0.232563042498E+04   -0.32247E-03   -0.43533E-03  4794   0.373E-02    0.110E-01
RMM:   3    -0.232563044469E+04   -0.19711E-04   -0.60218E-04  4083   0.185E-02    0.115E-01
RMM:   4    -0.232563037415E+04    0.70536E-04   -0.23640E-04  3642   0.923E-03    0.626E-02
RMM:   5    -0.232563039288E+04   -0.18721E-04   -0.12550E-04  3496   0.710E-03    0.552E-02
RMM:   6    -0.232563036645E+04    0.26424E-04   -0.48426E-05  3034   0.522E-03    0.188E-02
RMM:   7    -0.232563036323E+04    0.32233E-05   -0.11837E-05  2820   0.306E-03
  30 F= -.23466015E+04 E0= -.23466015E+04  d E =-.178673E-12  mag=     5.0000
       N       E                     dE             d eps       ncg     rms          rms(c)
DAV:   1    -0.232560278855E+04    0.27578E-01   -0.92677E-01  4620   0.471E-01    0.305E-01
RMM:   2    -0.232560348078E+04   -0.69223E-03   -0.16715E-02  5515   0.684E-02    0.233E-01
RMM:   3    -0.232560330295E+04    0.17784E-03   -0.24101E-03  5094   0.334E-02    0.205E-01
RMM:   4    -0.232560291943E+04    0.38352E-03   -0.74684E-04  4471   0.160E-02    0.825E-02
RMM:   5    -0.232560290290E+04    0.16533E-04   -0.40474E-04  4602   0.111E-02    0.444E-02
RMM:   6    -0.232560287774E+04    0.25155E-04   -0.84934E-05  3318   0.705E-03    0.273E-02
RMM:   7    -0.232560287623E+04    0.15091E-05   -0.30001E-05  2996   0.379E-03
  31 F= -.23465764E+04 E0= -.23465764E+04  d E =-.407620E-13  mag=     5.0000
